 Entering Link 1 = C:\G16W\l1.exe PID=     17880.
  
 Copyright (c) 1988-2019, Gaussian, Inc.  All Rights Reserved.
  
 This is part of the Gaussian(R) 16 program.  It is based on
 the Gaussian(R) 09 system (copyright 2009, Gaussian, Inc.),
 the Gaussian(R) 03 system (copyright 2003, Gaussian, Inc.),
 the Gaussian(R) 98 system (copyright 1998, Gaussian, Inc.),
 the Gaussian(R) 94 system (copyright 1995, Gaussian, Inc.),
 the Gaussian 92(TM) system (copyright 1992, Gaussian, Inc.),
 the Gaussian 90(TM) system (copyright 1990, Gaussian, Inc.),
 the Gaussian 88(TM) system (copyright 1988, Gaussian, Inc.),
 the Gaussian 86(TM) system (copyright 1986, Carnegie Mellon
 University), and the Gaussian 82(TM) system (copyright 1983,
 Carnegie Mellon University). Gaussian is a federally registered
 trademark of Gaussian, Inc.
  
 This software contains proprietary and confidential information,
 including trade secrets, belonging to Gaussian, Inc.
  
 This software is provided under written license and may be
 used, copied, transmitted, or stored only in accord with that
 written license.
  
 The following legend is applicable only to US Government
 contracts under FAR:
  
                    RESTRICTED RIGHTS LEGEND
  
 Use, reproduction and disclosure by the US Government is
 subject to restrictions as set forth in subparagraphs (a)
 and (c) of the Commercial Computer Software - Restricted
 Rights clause in FAR 52.227-19.
  
 Gaussian, Inc.
 340 Quinnipiac St., Bldg. 40, Wallingford CT 06492
  
  
 ---------------------------------------------------------------
 Warning -- This program may not be used in any manner that
 competes with the business of Gaussian, Inc. or will provide
 assistance to any competitor of Gaussian, Inc.  The licensee
 of this program is prohibited from giving any competitor of
 Gaussian, Inc. access to this program.  By using this program,
 the user acknowledges that Gaussian, Inc. is engaged in the
 business of creating and licensing software in the field of
 computational chemistry and represents and warrants to the
 licensee that it is not a competitor of Gaussian, Inc. and that
 it will not use this program in any manner prohibited above.
 ---------------------------------------------------------------
  

 Cite this work as:
 Gaussian 16, Revision C.01,
 M. J. Frisch, G. W. Trucks, H. B. Schlegel, G. E. Scuseria, 
 M. A. Robb, J. R. Cheeseman, G. Scalmani, V. Barone, 
 G. A. Petersson, H. Nakatsuji, X. Li, M. Caricato, A. V. Marenich, 
 J. Bloino, B. G. Janesko, R. Gomperts, B. Mennucci, H. P. Hratchian, 
 J. V. Ortiz, A. F. Izmaylov, J. L. Sonnenberg, D. Williams-Young, 
 F. Ding, F. Lipparini, F. Egidi, J. Goings, B. Peng, A. Petrone, 
 T. Henderson, D. Ranasinghe, V. G. Zakrzewski, J. Gao, N. Rega, 
 G. Zheng, W. Liang, M. Hada, M. Ehara, K. Toyota, R. Fukuda, 
 J. Hasegawa, M. Ishida, T. Nakajima, Y. Honda, O. Kitao, H. Nakai, 
 T. Vreven, K. Throssell, J. A. Montgomery, Jr., J. E. Peralta, 
 F. Ogliaro, M. J. Bearpark, J. J. Heyd, E. N. Brothers, K. N. Kudin, 
 V. N. Staroverov, T. A. Keith, R. Kobayashi, J. Normand, 
 K. Raghavachari, A. P. Rendell, J. C. Burant, S. S. Iyengar, 
 J. Tomasi, M. Cossi, J. M. Millam, M. Klene, C. Adamo, R. Cammi, 
 J. W. Ochterski, R. L. Martin, K. Morokuma, O. Farkas, 
 J. B. Foresman, and D. J. Fox, Gaussian, Inc., Wallingford CT, 2019.
 
 ******************************************
 Gaussian 16:  EM64W-G16RevC.01 30-May-2019
                29-Jul-2024 
 ******************************************
 %Mem=30GB
 %NProcShared=30
 Will use up to   30 processors via shared memory.
 %Chk=dimethylacetamide.chk
 ----------------------------------------------------------------------
 #p opt=tight m06/cc-pVTZ scf=(tight,novaracc,noincfock) scrf=(smd,solv
 ent=water) integral=(grid=ultrafine)
 ----------------------------------------------------------------------
 1/7=10,18=20,19=15,26=6,38=1/1,3;
 2/9=110,12=2,17=6,18=5,40=1/2;
 3/5=16,6=1,11=2,25=1,30=1,70=32201,71=1,72=1,74=-54,75=-5/1,2,3;
 4//1;
 5/5=100002,32=2,38=1,53=1/2;
 6/7=2,8=2,9=2,10=2,28=1/1;
 7//1,2,3,16;
 1/7=10,18=20,19=15,26=6/3(2);
 2/9=110/2;
 99//99;
 2/9=110/2;
 3/5=16,6=1,11=2,25=1,30=1,70=32205,71=1,72=1,74=-54,75=-5/1,2,3;
 4/5=5,16=3,69=1/1;
 5/5=100002,32=2,38=1,53=1/2;
 7//1,2,3,16;
 1/7=10,18=20,19=15,26=6/3(-5);
 2/9=110/2;
 6/7=2,8=2,9=2,10=2,19=2,28=1/1;
 99/9=1/99;
 Leave Link    1 at Mon Jul 29 17:08:19 2024, MaxMem=  4026531840 cpu:               1.0 elap:               0.6
 (Enter C:\G16W\l101.exe)
 ----------------------------------------
 Geometry optimisation, dimethylacetamide
 ----------------------------------------
 Symbolic Z-matrix:
 Charge =  0 Multiplicity = 1
 C                    -1.34506   1.084     0. 
 H                    -0.98841   0.07519   0. 
 H                    -0.98839   1.58839  -0.87365 
 H                    -2.41506   1.08401   0. 
 C                    -0.83172   1.80995   1.2574 
 O                    -1.13309   3.01469   1.46078 
 N                     0.01323   1.09314   2.22339 
 C                    -0.6464    1.081     3.53703 
 H                    -0.19102   0.33804   4.15795 
 H                    -0.54363   2.04177   3.99664 
 H                    -1.6847    0.85433   3.41268 
 C                     1.31336   1.77012   2.33418 
 H                     1.9902    1.15403   2.88846 
 H                     1.70939   1.94417   1.35552 
 H                     1.18685   2.70492   2.83919 
 
 ITRead=  0  0  0  0  0  0  0  0  0  0  0  0  0  0  0
 MicOpt= -1 -1 -1 -1 -1 -1 -1 -1 -1 -1 -1 -1 -1 -1 -1
 NAtoms=     15 NQM=       15 NQMF=       0 NMMI=      0 NMMIF=      0
                NMic=       0 NMicF=      0.
                    Isotopes and Nuclear Properties:
 (Nuclear quadrupole moments (NQMom) in fm**2, nuclear magnetic moments (NMagM)
  in nuclear magnetons)

  Atom         1           2           3           4           5           6           7           8           9          10
 IAtWgt=          12           1           1           1          12          16          14          12           1           1
 AtmWgt=  12.0000000   1.0078250   1.0078250   1.0078250  12.0000000  15.9949146  14.0030740  12.0000000   1.0078250   1.0078250
 NucSpn=           0           1           1           1           0           0           2           0           1           1
 AtZEff=   0.0000000   0.0000000   0.0000000   0.0000000   0.0000000   0.0000000   0.0000000   0.0000000   0.0000000   0.0000000
 NQMom=    0.0000000   0.0000000   0.0000000   0.0000000   0.0000000   0.0000000   2.0440000   0.0000000   0.0000000   0.0000000
 NMagM=    0.0000000   2.7928460   2.7928460   2.7928460   0.0000000   0.0000000   0.4037610   0.0000000   2.7928460   2.7928460
 AtZNuc=   6.0000000   1.0000000   1.0000000   1.0000000   6.0000000   8.0000000   7.0000000   6.0000000   1.0000000   1.0000000

  Atom        11          12          13          14          15
 IAtWgt=           1          12           1           1           1
 AtmWgt=   1.0078250  12.0000000   1.0078250   1.0078250   1.0078250
 NucSpn=           1           0           1           1           1
 AtZEff=   0.0000000   0.0000000   0.0000000   0.0000000   0.0000000
 NQMom=    0.0000000   0.0000000   0.0000000   0.0000000   0.0000000
 NMagM=    2.7928460   0.0000000   2.7928460   2.7928460   2.7928460
 AtZNuc=   1.0000000   6.0000000   1.0000000   1.0000000   1.0000000
 Leave Link  101 at Mon Jul 29 17:08:19 2024, MaxMem=  4026531840 cpu:               0.0 elap:               0.8
 (Enter C:\G16W\l103.exe)

 GradGradGradGradGradGradGradGradGradGradGradGradGradGradGradGradGradGrad
 Berny optimization.
 Initialization pass.
                           ----------------------------
                           !    Initial Parameters    !
                           ! (Angstroms and Degrees)  !
 --------------------------                            --------------------------
 ! Name  Definition              Value          Derivative Info.                !
 --------------------------------------------------------------------------------
 ! R1    R(1,2)                  1.07           estimate D2E/DX2                !
 ! R2    R(1,3)                  1.07           estimate D2E/DX2                !
 ! R3    R(1,4)                  1.07           estimate D2E/DX2                !
 ! R4    R(1,5)                  1.54           estimate D2E/DX2                !
 ! R5    R(5,6)                  1.2584         estimate D2E/DX2                !
 ! R6    R(5,7)                  1.47           estimate D2E/DX2                !
 ! R7    R(7,8)                  1.47           estimate D2E/DX2                !
 ! R8    R(7,12)                 1.47           estimate D2E/DX2                !
 ! R9    R(8,9)                  1.07           estimate D2E/DX2                !
 ! R10   R(8,10)                 1.07           estimate D2E/DX2                !
 ! R11   R(8,11)                 1.07           estimate D2E/DX2                !
 ! R12   R(12,13)                1.07           estimate D2E/DX2                !
 ! R13   R(12,14)                1.07           estimate D2E/DX2                !
 ! R14   R(12,15)                1.07           estimate D2E/DX2                !
 ! A1    A(2,1,3)              109.4712         estimate D2E/DX2                !
 ! A2    A(2,1,4)              109.4712         estimate D2E/DX2                !
 ! A3    A(2,1,5)              109.4712         estimate D2E/DX2                !
 ! A4    A(3,1,4)              109.4712         estimate D2E/DX2                !
 ! A5    A(3,1,5)              109.4713         estimate D2E/DX2                !
 ! A6    A(4,1,5)              109.4712         estimate D2E/DX2                !
 ! A7    A(1,5,6)              120.2269         estimate D2E/DX2                !
 ! A8    A(1,5,7)              119.8865         estimate D2E/DX2                !
 ! A9    A(6,5,7)              119.8865         estimate D2E/DX2                !
 ! A10   A(5,7,8)              109.4712         estimate D2E/DX2                !
 ! A11   A(5,7,12)             109.4712         estimate D2E/DX2                !
 ! A12   A(8,7,12)             109.4713         estimate D2E/DX2                !
 ! A13   A(7,8,9)              109.4712         estimate D2E/DX2                !
 ! A14   A(7,8,10)             109.4712         estimate D2E/DX2                !
 ! A15   A(7,8,11)             109.4712         estimate D2E/DX2                !
 ! A16   A(9,8,10)             109.4713         estimate D2E/DX2                !
 ! A17   A(9,8,11)             109.4712         estimate D2E/DX2                !
 ! A18   A(10,8,11)            109.4712         estimate D2E/DX2                !
 ! A19   A(7,12,13)            109.4712         estimate D2E/DX2                !
 ! A20   A(7,12,14)            109.4712         estimate D2E/DX2                !
 ! A21   A(7,12,15)            109.4712         estimate D2E/DX2                !
 ! A22   A(13,12,14)           109.4713         estimate D2E/DX2                !
 ! A23   A(13,12,15)           109.4712         estimate D2E/DX2                !
 ! A24   A(14,12,15)           109.4712         estimate D2E/DX2                !
 ! D1    D(2,1,5,6)            179.9997         estimate D2E/DX2                !
 ! D2    D(2,1,5,7)             -0.0003         estimate D2E/DX2                !
 ! D3    D(3,1,5,6)             59.9997         estimate D2E/DX2                !
 ! D4    D(3,1,5,7)           -120.0003         estimate D2E/DX2                !
 ! D5    D(4,1,5,6)            -60.0003         estimate D2E/DX2                !
 ! D6    D(4,1,5,7)            119.9997         estimate D2E/DX2                !
 ! D7    D(1,5,7,8)           -120.1103         estimate D2E/DX2                !
 ! D8    D(1,5,7,12)           119.8897         estimate D2E/DX2                !
 ! D9    D(6,5,7,8)             59.8897         estimate D2E/DX2                !
 ! D10   D(6,5,7,12)           -60.1103         estimate D2E/DX2                !
 ! D11   D(5,7,8,9)            163.7639         estimate D2E/DX2                !
 ! D12   D(5,7,8,10)           -76.2361         estimate D2E/DX2                !
 ! D13   D(5,7,8,11)            43.7639         estimate D2E/DX2                !
 ! D14   D(12,7,8,9)           -76.2361         estimate D2E/DX2                !
 ! D15   D(12,7,8,10)           43.7639         estimate D2E/DX2                !
 ! D16   D(12,7,8,11)          163.7639         estimate D2E/DX2                !
 ! D17   D(5,7,12,13)         -169.3783         estimate D2E/DX2                !
 ! D18   D(5,7,12,14)          -49.3783         estimate D2E/DX2                !
 ! D19   D(5,7,12,15)           70.6217         estimate D2E/DX2                !
 ! D20   D(8,7,12,13)           70.6217         estimate D2E/DX2                !
 ! D21   D(8,7,12,14)         -169.3783         estimate D2E/DX2                !
 ! D22   D(8,7,12,15)          -49.3783         estimate D2E/DX2                !
 --------------------------------------------------------------------------------
 Trust Radius=3.00D-01 FncErr=5.00D-06 GrdErr=5.00D-06 EigMax=2.50D+02 EigMin=1.00D-04
 Number of steps in this run=     70 maximum allowed number of steps=    100.
 GradGradGradGradGradGradGradGradGradGradGradGradGradGradGradGradGradGrad

 Leave Link  103 at Mon Jul 29 17:08:21 2024, MaxMem=  4026531840 cpu:               1.0 elap:               0.5
 (Enter C:\G16W\l202.exe)
                          Input orientation:                          
 ---------------------------------------------------------------------
 Center     Atomic      Atomic             Coordinates (Angstroms)
 Number     Number       Type             X           Y           Z
 ---------------------------------------------------------------------
      1          6           0       -1.345062    1.083995    0.000000
      2          1           0       -0.988408    0.075185    0.000000
      3          1           0       -0.988390    1.588394   -0.873652
      4          1           0       -2.415062    1.084009    0.000000
      5          6           0       -0.831720    1.809952    1.257405
      6          8           0       -1.133091    3.014685    1.460784
      7          7           0        0.013234    1.093140    2.223393
      8          6           0       -0.646400    1.080996    3.537027
      9          1           0       -0.191018    0.338039    4.157948
     10          1           0       -0.543627    2.041774    3.996638
     11          1           0       -1.684698    0.854334    3.412678
     12          6           0        1.313361    1.770116    2.334176
     13          1           0        1.990197    1.154026    2.888456
     14          1           0        1.709391    1.944169    1.355521
     15          1           0        1.186847    2.704918    2.839190
 ---------------------------------------------------------------------
                    Distance matrix (angstroms):
                    1          2          3          4          5
     1  C    0.000000
     2  H    1.070000   0.000000
     3  H    1.070000   1.747302   0.000000
     4  H    1.070000   1.747303   1.747303   0.000000
     5  C    1.540000   2.148263   2.148263   2.148263   0.000000
     6  O    2.430306   3.285648   2.739496   2.739499   1.258400
     7  N    2.605481   2.642536   3.292448   3.292444   1.470000
     8  C    3.605371   3.693127   4.452920   3.954584   2.400500
     9  H    4.379132   4.241869   5.245587   4.774031   3.315143
    10  H    4.187213   4.476429   4.911526   4.515828   2.764080
    11  H    3.437218   3.569071   4.404124   3.497507   2.507185
    12  C    3.603659   3.690435   3.952372   4.451996   2.400500
    13  H    4.412713   4.287093   4.818102   5.268244   3.324723
    14  H    3.450655   3.550867   3.517642   4.425882   2.546544
    15  H    4.135088   4.439395   4.445613   4.864370   2.716178
                    6          7          8          9         10
     6  O    0.000000
     7  N    2.363889   0.000000
     8  C    2.878682   1.470000   0.000000
     9  H    3.914924   2.086720   1.070000   0.000000
    10  H    2.779313   2.086720   1.070000   1.747303   0.000000
    11  H    2.963322   2.086720   1.070000   1.747303   1.747303
    12  C    2.880433   1.470000   2.400500   2.764081   2.507186
    13  H    3.905794   2.086720   2.716178   2.652385   2.904553
    14  H    3.039208   2.086720   3.324724   3.747640   3.472911
    15  H    2.716260   2.086720   2.546545   3.039696   2.184944
                   11         12         13         14         15
    11  H    0.000000
    12  C    3.315144   0.000000
    13  H    3.724175   1.070000   0.000000
    14  H    4.115759   1.070000   1.747303   0.000000
    15  H    3.464003   1.070000   1.747303   1.747303   0.000000
 Stoichiometry    C4H9NO
 Framework group  C1[X(C4H9NO)]
 Deg. of freedom    39
 Full point group                 C1      NOp   1
 Largest Abelian subgroup         C1      NOp   1
 Largest concise Abelian subgroup C1      NOp   1
                         Standard orientation:                         
 ---------------------------------------------------------------------
 Center     Atomic      Atomic             Coordinates (Angstroms)
 Number     Number       Type             X           Y           Z
 ---------------------------------------------------------------------
      1          6           0       -2.000287    0.005951   -0.708111
      2          1           0       -1.740252    0.014858   -1.745995
      3          1           0       -2.576082    0.877751   -0.477188
      4          1           0       -2.576412   -0.869487   -0.492265
      5          6           0       -0.716642   -0.001633    0.142651
      6          8           0       -0.789285   -0.012454    1.398906
      7          7           0        0.598027    0.003786   -0.515009
      8          6           0        1.347087   -1.198699   -0.122786
      9          1           0        2.163914   -1.346139   -0.798031
     10          1           0        1.723719   -1.075890    0.871179
     11          1           0        0.698862   -2.049346   -0.156011
     12          6           0        1.345480    1.201744   -0.106217
     13          1           0        2.217017    1.304518   -0.718394
     14          1           0        0.724945    2.065814   -0.221186
     15          1           0        1.638544    1.106881    0.918486
 ---------------------------------------------------------------------
 Rotational constants (GHZ):           5.1437111           2.6142810           2.5752176
 Leave Link  202 at Mon Jul 29 17:08:21 2024, MaxMem=  4026531840 cpu:               0.0 elap:               0.5
 (Enter C:\G16W\l301.exe)
 Standard basis: CC-pVTZ (5D, 7F)
 Ernie: Thresh=  0.10000D-02 Tol=  0.10000D-05 Strict=F.
 Ernie:  18 primitive shells out of 228 were deleted.
 There are   345 symmetry adapted cartesian basis functions of A   symmetry.
 There are   306 symmetry adapted basis functions of A   symmetry.
   306 basis functions,   465 primitive gaussians,   345 cartesian basis functions
    24 alpha electrons       24 beta electrons
       nuclear repulsion energy       248.8357762510 Hartrees.
 IExCor= 4235 DFT=T Ex+Corr=M06 ExCW=0 ScaHFX=  0.270000
 ScaDFX=  1.000000  1.000000  1.000000  1.000000 ScalE2=  1.000000  1.000000
 IRadAn=      5 IRanWt=     -1 IRanGd=            0 ICorTp=0 IEmpDi=  4
 NAtoms=   15 NActive=   15 NUniq=   15 SFac= 1.00D+00 NAtFMM=   60 NAOKFM=F Big=F
 Integral buffers will be    131072 words long.
 Raffenetti 2 integral format.
 Two-electron integral symmetry is turned on.
 ------------------------------------------------------------------------------
 Polarizable Continuum Model (PCM)
 =================================
 Model                : PCM.
 Atomic radii         : SMD-Coulomb.
 Polarization charges : Total charges.
 Charge compensation  : None.
 Solution method      : On-the-fly selection.
 Cavity type          : VdW (van der Waals Surface) (Alpha=1.000).
 Cavity algorithm     : GePol (No added spheres)
                        Default sphere list used, NSphG=   15.
                        Lebedev-Laikov grids with approx.  5.0 points / Ang**2.
                        Smoothing algorithm: York/Karplus (Gamma=1.0000).
                        Polarization charges: spherical gaussians, with
                                              point-specific exponents (IZeta= 3).
                        Self-potential: point-specific (ISelfS= 7).
                        Self-field    : sphere-specific E.n sum rule (ISelfD= 2).
 1st derivatives      : Analytical E(r).r(x)/FMM algorithm (CHGder, D1EAlg=3).
                        Cavity 1st derivative terms included.
 Solvent              : Water, Eps=  78.355300 Eps(inf)=   1.777849
 ------------------------------------------------------------------------------
 Spheres list:
 ISph  on   Nord     Re0    Alpha      Xe            Ye            Ze
    1   C      1    1.8500  1.000     -2.000287      0.005951     -0.708111
    2   H      2    1.2000  1.000     -1.740252      0.014858     -1.745995
    3   H      3    1.2000  1.000     -2.576082      0.877751     -0.477188
    4   H      4    1.2000  1.000     -2.576412     -0.869487     -0.492265
    5   C      5    1.8500  1.000     -0.716642     -0.001633      0.142651
    6   O      6    1.5200  1.000     -0.789285     -0.012454      1.398906
    7   N      7    1.8900  1.000      0.598027      0.003786     -0.515009
    8   C      8    1.8500  1.000      1.347087     -1.198699     -0.122786
    9   H      9    1.2000  1.000      2.163914     -1.346139     -0.798031
   10   H     10    1.2000  1.000      1.723719     -1.075890      0.871179
   11   H     11    1.2000  1.000      0.698862     -2.049346     -0.156011
   12   C     12    1.8500  1.000      1.345480      1.201744     -0.106217
   13   H     13    1.2000  1.000      2.217017      1.304518     -0.718394
   14   H     14    1.2000  1.000      0.724945      2.065814     -0.221186
   15   H     15    1.2000  1.000      1.638544      1.106881      0.918486
 ------------------------------------------------------------------------------
 GePol: Number of generator spheres                  =      15
 GePol: Total number of spheres                      =      15
 GePol: Number of exposed spheres                    =      15 (100.00%)
 GePol: Number of points                             =    1109
 GePol: Average weight of points                     =       0.12
 GePol: Minimum weight of points                     =   0.16D-08
 GePol: Maximum weight of points                     =    0.21991
 GePol: Number of points with low weight             =      66
 GePol: Fraction of low-weight points (<1% of avg)   =       5.95%
 GePol: Cavity surface area                          =    129.960 Ang**2
 GePol: Cavity volume                                =    102.130 Ang**3
 ------------------------------------------------------------------------------
 Atomic radii for non-electrostatic terms: SMD-CDS.
 ------------------------------------------------------------------------------
 PCM non-electrostatic energy =         0.0039113504 Hartrees.
 Nuclear repulsion after PCM non-electrostatic terms =      248.8396876013 Hartrees.
 Leave Link  301 at Mon Jul 29 17:08:22 2024, MaxMem=  4026531840 cpu:               0.0 elap:               0.6
 (Enter C:\G16W\l302.exe)
 NPDir=0 NMtPBC=     1 NCelOv=     1 NCel=       1 NClECP=     1 NCelD=      1
         NCelK=      1 NCelE2=     1 NClLst=     1 CellRange=     0.0.
 One-electron integrals computed using PRISM.
 One-electron integral symmetry used in STVInt
 NBasis=   306 RedAO= T EigKep=  6.86D-04  NBF=   306
 NBsUse=   306 1.00D-06 EigRej= -1.00D+00 NBFU=   306
 Precomputing XC quadrature grid using
 IXCGrd= 4 IRadAn=           5 IRanWt=          -1 IRanGd=           0 AccXCQ= 0.00D+00.
 Generated NRdTot=       0 NPtTot=           0 NUsed=           0 NTot=          32
 NSgBfM=   345   345   345   345   345 MxSgAt=    15 MxSgA2=    15.
 Leave Link  302 at Mon Jul 29 17:08:24 2024, MaxMem=  4026531840 cpu:               1.0 elap:               1.6
 (Enter C:\G16W\l303.exe)
 DipDrv:  MaxL=1.
 Leave Link  303 at Mon Jul 29 17:08:26 2024, MaxMem=  4026531840 cpu:               1.0 elap:               0.6
 (Enter C:\G16W\l401.exe)
 ExpMin= 1.03D-01 ExpMax= 1.53D+04 ExpMxC= 5.22D+02 IAcc=3 IRadAn=         5 AccDes= 0.00D+00
 Harris functional with IExCor= 1009 and IRadAn=       5 diagonalized for initial guess.
 HarFok:  IExCor= 1009 AccDes= 0.00D+00 IRadAn=         5 IDoV= 1 UseB2=F ITyADJ=14
 ICtDFT=  3500011 ScaDFX=  1.000000  1.000000  1.000000  1.000000
 FoFCou: FMM=F IPFlag=           0 FMFlag=      100000 FMFlg1=           0
         NFxFlg=           0 DoJE=T BraDBF=F KetDBF=T FulRan=T
         wScrn=  0.000000 ICntrl=       500 IOpCl=  0 I1Cent=   200000004 NGrid=           0
         NMat0=    1 NMatS0=      1 NMatT0=    0 NMatD0=    1 NMtDS0=    0 NMtDT0=    0
 Petite list used in FoFCou.
 Harris En= -287.679612170973    
 JPrj=0 DoOrth=F DoCkMO=F.
 Leave Link  401 at Mon Jul 29 17:08:29 2024, MaxMem=  4026531840 cpu:               3.0 elap:               3.0
 (Enter C:\G16W\l502.exe)
 Integral symmetry usage will be decided dynamically.
 Closed shell SCF:
 Using DIIS extrapolation, IDIIS=  1040.
 NGot=  4026531840 LenX=  4026279974 LenY=  4026160508
 Requested convergence on RMS density matrix=1.00D-08 within 128 cycles.
 Requested convergence on MAX density matrix=1.00D-06.
 Requested convergence on             energy=1.00D-06.
 No special actions if energy rises.

 Cycle   1  Pass 1  IDiag  1:
 FoFJK:  IHMeth= 1 ICntrl=       0 DoSepK=F KAlg= 0 I1Cent=           0 FoldK=F
 IRaf= 980000000 NMat=       1 IRICut=       1 DoRegI=T DoRafI=F ISym2E= 0 IDoP0=0 IntGTp=1.
 FoFCou: FMM=F IPFlag=           0 FMFlag=      100000 FMFlg1=           0
         NFxFlg=           0 DoJE=F BraDBF=F KetDBF=F FulRan=T
         wScrn=  0.000000 ICntrl=         0 IOpCl=  0 I1Cent=           0 NGrid=           0
         NMat0=    1 NMatS0=      1 NMatT0=    0 NMatD0=    1 NMtDS0=    0 NMtDT0=    0
 Symmetry not used in FoFCou.
 Inv3:  Mode=1 IEnd=     3689643.
 Iteration    1 A*A^-1 deviation from unit magnitude is 4.44D-15 for    789.
 Iteration    1 A*A^-1 deviation from orthogonality  is 2.72D-15 for    918    398.
 Iteration    1 A^-1*A deviation from unit magnitude is 4.44D-15 for    789.
 Iteration    1 A^-1*A deviation from orthogonality  is 2.19D-15 for    919    539.
 E= -287.505911705619    
 DIIS: error= 2.92D-02 at cycle   1 NSaved=   1.
 NSaved= 1 IEnMin= 1 EnMin= -287.505911705619     IErMin= 1 ErrMin= 2.92D-02
 ErrMax= 2.92D-02  0.00D+00 EMaxC= 1.00D-01 BMatC= 2.26D-01 BMatP= 2.26D-01
 IDIUse=3 WtCom= 7.08D-01 WtEn= 2.92D-01
 Coeff-Com:  0.100D+01
 Coeff-En:   0.100D+01
 Coeff:      0.100D+01
 Gap=     0.173 Goal=   None    Shift=    0.000
 GapD=    0.173 DampG=1.000 DampE=0.500 DampFc=0.5000 IDamp=-1.
 Damping current iteration by 5.00D-01
 RMSDP=2.41D-03 MaxDP=1.02D-01              OVMax= 1.78D-01

 Cycle   2  Pass 1  IDiag  1:
 E= -287.587014614749     Delta-E=       -0.081102909130 Rises=F Damp=T
 DIIS: error= 7.28D-03 at cycle   2 NSaved=   2.
 NSaved= 2 IEnMin= 2 EnMin= -287.587014614749     IErMin= 2 ErrMin= 7.28D-03
 ErrMax= 7.28D-03  0.00D+00 EMaxC= 1.00D-01 BMatC= 1.61D-02 BMatP= 2.26D-01
 IDIUse=3 WtCom= 9.27D-01 WtEn= 7.28D-02
 Coeff-Com:  0.119D+00 0.881D+00
 Coeff-En:   0.168D+00 0.832D+00
 Coeff:      0.123D+00 0.877D+00
 Gap=     0.226 Goal=   None    Shift=    0.000
 RMSDP=6.42D-04 MaxDP=2.22D-02 DE=-8.11D-02 OVMax= 1.26D-01

 Cycle   3  Pass 1  IDiag  1:
 E= -287.686146797646     Delta-E=       -0.099132182896 Rises=F Damp=F
 DIIS: error= 9.05D-03 at cycle   3 NSaved=   3.
 NSaved= 3 IEnMin= 3 EnMin= -287.686146797646     IErMin= 2 ErrMin= 7.28D-03
 ErrMax= 9.05D-03  0.00D+00 EMaxC= 1.00D-01 BMatC= 1.87D-02 BMatP= 1.61D-02
 IDIUse=3 WtCom= 9.51D-02 WtEn= 9.05D-01
 Coeff-Com:  0.250D-01 0.520D+00 0.455D+00
 Coeff-En:   0.000D+00 0.000D+00 0.100D+01
 Coeff:      0.238D-02 0.495D-01 0.948D+00
 Gap=     0.221 Goal=   None    Shift=    0.000
 RMSDP=6.89D-04 MaxDP=3.51D-02 DE=-9.91D-02 OVMax= 1.26D-01

 Cycle   4  Pass 1  IDiag  1:
 E= -287.655614255293     Delta-E=        0.030532542352 Rises=F Damp=F
 DIIS: error= 1.59D-02 at cycle   4 NSaved=   4.
 NSaved= 4 IEnMin= 3 EnMin= -287.686146797646     IErMin= 2 ErrMin= 7.28D-03
 ErrMax= 1.59D-02  0.00D+00 EMaxC= 1.00D-01 BMatC= 6.14D-02 BMatP= 1.61D-02
 IDIUse=2 WtCom= 0.00D+00 WtEn= 1.00D+00
 Coeff-En:   0.000D+00 0.000D+00 0.714D+00 0.286D+00
 Coeff:      0.000D+00 0.000D+00 0.714D+00 0.286D+00
 Gap=     0.225 Goal=   None    Shift=    0.000
 RMSDP=3.59D-04 MaxDP=1.89D-02 DE= 3.05D-02 OVMax= 6.27D-02

 Cycle   5  Pass 1  IDiag  1:
 E= -287.698680282599     Delta-E=       -0.043066027306 Rises=F Damp=F
 DIIS: error= 3.13D-03 at cycle   5 NSaved=   5.
 NSaved= 5 IEnMin= 5 EnMin= -287.698680282599     IErMin= 5 ErrMin= 3.13D-03
 ErrMax= 3.13D-03  0.00D+00 EMaxC= 1.00D-01 BMatC= 2.32D-03 BMatP= 1.61D-02
 IDIUse=3 WtCom= 9.69D-01 WtEn= 3.13D-02
 Coeff-Com: -0.845D-02 0.219D-01 0.226D+00-0.418D-01 0.802D+00
 Coeff-En:   0.000D+00 0.000D+00 0.121D+00 0.000D+00 0.879D+00
 Coeff:     -0.819D-02 0.212D-01 0.223D+00-0.405D-01 0.804D+00
 Gap=     0.217 Goal=   None    Shift=    0.000
 RMSDP=8.67D-05 MaxDP=4.13D-03 DE=-4.31D-02 OVMax= 1.37D-02

 Cycle   6  Pass 1  IDiag  1:
 E= -287.700479461323     Delta-E=       -0.001799178724 Rises=F Damp=F
 DIIS: error= 1.77D-04 at cycle   6 NSaved=   6.
 NSaved= 6 IEnMin= 6 EnMin= -287.700479461323     IErMin= 6 ErrMin= 1.77D-04
 ErrMax= 1.77D-04  0.00D+00 EMaxC= 1.00D-01 BMatC= 1.24D-05 BMatP= 2.32D-03
 IDIUse=3 WtCom= 9.98D-01 WtEn= 1.77D-03
 Coeff-Com: -0.658D-02 0.104D-01 0.608D-01-0.454D-01 0.393D+00 0.588D+00
 Coeff-En:   0.000D+00 0.000D+00 0.000D+00 0.000D+00 0.000D+00 0.100D+01
 Coeff:     -0.657D-02 0.104D-01 0.607D-01-0.453D-01 0.392D+00 0.589D+00
 Gap=     0.216 Goal=   None    Shift=    0.000
 RMSDP=8.07D-06 MaxDP=4.41D-04 DE=-1.80D-03 OVMax= 7.62D-04

 Cycle   7  Pass 1  IDiag  1:
 E= -287.700488848064     Delta-E=       -0.000009386741 Rises=F Damp=F
 DIIS: error= 5.34D-05 at cycle   7 NSaved=   7.
 NSaved= 7 IEnMin= 7 EnMin= -287.700488848064     IErMin= 7 ErrMin= 5.34D-05
 ErrMax= 5.34D-05  0.00D+00 EMaxC= 1.00D-01 BMatC= 6.16D-07 BMatP= 1.24D-05
 IDIUse=1 WtCom= 1.00D+00 WtEn= 0.00D+00
 Coeff-Com: -0.169D-02 0.299D-02 0.320D-02-0.138D-01 0.776D-01 0.230D+00
 Coeff-Com:  0.701D+00
 Coeff:     -0.169D-02 0.299D-02 0.320D-02-0.138D-01 0.776D-01 0.230D+00
 Coeff:      0.701D+00
 Gap=     0.216 Goal=   None    Shift=    0.000
 RMSDP=2.63D-06 MaxDP=1.65D-04 DE=-9.39D-06 OVMax= 2.26D-04

 Cycle   8  Pass 1  IDiag  1:
 E= -287.700489299376     Delta-E=       -0.000000451312 Rises=F Damp=F
 DIIS: error= 1.90D-05 at cycle   8 NSaved=   8.
 NSaved= 8 IEnMin= 8 EnMin= -287.700489299376     IErMin= 8 ErrMin= 1.90D-05
 ErrMax= 1.90D-05  0.00D+00 EMaxC= 1.00D-01 BMatC= 9.16D-08 BMatP= 6.16D-07
 IDIUse=1 WtCom= 1.00D+00 WtEn= 0.00D+00
 Coeff-Com: -0.465D-04-0.107D-03-0.467D-02-0.108D-02-0.665D-02 0.342D-01
 Coeff-Com:  0.317D+00 0.661D+00
 Coeff:     -0.465D-04-0.107D-03-0.467D-02-0.108D-02-0.665D-02 0.342D-01
 Coeff:      0.317D+00 0.661D+00
 Gap=     0.216 Goal=   None    Shift=    0.000
 RMSDP=1.27D-06 MaxDP=4.68D-05 DE=-4.51D-07 OVMax= 7.18D-05

 Cycle   9  Pass 1  IDiag  1:
 E= -287.700489380992     Delta-E=       -0.000000081616 Rises=F Damp=F
 DIIS: error= 2.35D-06 at cycle   9 NSaved=   9.
 NSaved= 9 IEnMin= 9 EnMin= -287.700489380992     IErMin= 9 ErrMin= 2.35D-06
 ErrMax= 2.35D-06  0.00D+00 EMaxC= 1.00D-01 BMatC= 2.02D-09 BMatP= 9.16D-08
 IDIUse=1 WtCom= 1.00D+00 WtEn= 0.00D+00
 Coeff-Com:  0.436D-04-0.907D-04-0.866D-03 0.374D-03-0.381D-02-0.641D-02
 Coeff-Com:  0.104D-01 0.931D-01 0.907D+00
 Coeff:      0.436D-04-0.907D-04-0.866D-03 0.374D-03-0.381D-02-0.641D-02
 Coeff:      0.104D-01 0.931D-01 0.907D+00
 Gap=     0.216 Goal=   None    Shift=    0.000
 RMSDP=2.65D-07 MaxDP=1.71D-05 DE=-8.16D-08 OVMax= 1.01D-05

 Cycle  10  Pass 1  IDiag  1:
 E= -287.700489382826     Delta-E=       -0.000000001834 Rises=F Damp=F
 DIIS: error= 7.41D-07 at cycle  10 NSaved=  10.
 NSaved=10 IEnMin=10 EnMin= -287.700489382826     IErMin=10 ErrMin= 7.41D-07
 ErrMax= 7.41D-07  0.00D+00 EMaxC= 1.00D-01 BMatC= 2.24D-10 BMatP= 2.02D-09
 IDIUse=1 WtCom= 1.00D+00 WtEn= 0.00D+00
 Coeff-Com:  0.928D-05-0.119D-04-0.117D-03 0.150D-03-0.921D-03-0.366D-02
 Coeff-Com: -0.147D-01-0.838D-02 0.277D+00 0.751D+00
 Coeff:      0.928D-05-0.119D-04-0.117D-03 0.150D-03-0.921D-03-0.366D-02
 Coeff:     -0.147D-01-0.838D-02 0.277D+00 0.751D+00
 Gap=     0.216 Goal=   None    Shift=    0.000
 RMSDP=6.80D-08 MaxDP=3.40D-06 DE=-1.83D-09 OVMax= 3.69D-06

 Cycle  11  Pass 1  IDiag  1:
 E= -287.700489382978     Delta-E=       -0.000000000153 Rises=F Damp=F
 DIIS: error= 3.15D-07 at cycle  11 NSaved=  11.
 NSaved=11 IEnMin=11 EnMin= -287.700489382978     IErMin=11 ErrMin= 3.15D-07
 ErrMax= 3.15D-07  0.00D+00 EMaxC= 1.00D-01 BMatC= 3.11D-11 BMatP= 2.24D-10
 IDIUse=1 WtCom= 1.00D+00 WtEn= 0.00D+00
 Coeff-Com: -0.178D-05 0.785D-05 0.143D-04 0.223D-04-0.398D-04-0.802D-03
 Coeff-Com: -0.667D-02-0.111D-01 0.367D-01 0.331D+00 0.651D+00
 Coeff:     -0.178D-05 0.785D-05 0.143D-04 0.223D-04-0.398D-04-0.802D-03
 Coeff:     -0.667D-02-0.111D-01 0.367D-01 0.331D+00 0.651D+00
 Gap=     0.216 Goal=   None    Shift=    0.000
 RMSDP=1.86D-08 MaxDP=6.09D-07 DE=-1.53D-10 OVMax= 1.06D-06

 Cycle  12  Pass 1  IDiag  1:
 E= -287.700489383029     Delta-E=       -0.000000000051 Rises=F Damp=F
 DIIS: error= 3.79D-08 at cycle  12 NSaved=  12.
 NSaved=12 IEnMin=12 EnMin= -287.700489383029     IErMin=12 ErrMin= 3.79D-08
 ErrMax= 3.79D-08  0.00D+00 EMaxC= 1.00D-01 BMatC= 4.46D-13 BMatP= 3.11D-11
 IDIUse=1 WtCom= 1.00D+00 WtEn= 0.00D+00
 Coeff-Com: -0.524D-06 0.172D-05 0.585D-05 0.136D-07 0.145D-04 0.360D-04
 Coeff-Com: -0.426D-03-0.145D-02-0.992D-02 0.169D-01 0.118D+00 0.877D+00
 Coeff:     -0.524D-06 0.172D-05 0.585D-05 0.136D-07 0.145D-04 0.360D-04
 Coeff:     -0.426D-03-0.145D-02-0.992D-02 0.169D-01 0.118D+00 0.877D+00
 Gap=     0.216 Goal=   None    Shift=    0.000
 RMSDP=4.52D-09 MaxDP=2.03D-07 DE=-5.10D-11 OVMax= 2.01D-07

 Error on total polarization charges =  0.03951
 SCF Done:  E(RM06) =  -287.700489383     A.U. after   12 cycles
            NFock= 12  Conv=0.45D-08     -V/T= 2.0076
 KE= 2.855326545969D+02 PE=-1.168256871266D+03 EE= 3.461840396849D+02
 SMD-CDS (non-electrostatic) energy       (kcal/mol) =       2.45
 (included in total energy above)
 Leave Link  502 at Mon Jul 29 17:10:03 2024, MaxMem=  4026531840 cpu:              94.0 elap:              94.1
 (Enter C:\G16W\l601.exe)
 Copying SCF densities to generalized density rwf, IOpCl= 0 IROHF=0.

 **********************************************************************

            Population analysis using the SCF Density.

 **********************************************************************

 Orbital symmetries:
       Occupied  (A) (A) (A) (A) (A) (A) (A) (A) (A) (A) (A) (A)
                 (A) (A) (A) (A) (A) (A) (A) (A) (A) (A) (A) (A)
       Virtual   (A) (A) (A) (A) (A) (A) (A) (A) (A) (A) (A) (A)
                 (A) (A) (A) (A) (A) (A) (A) (A) (A) (A) (A) (A)
                 (A) (A) (A) (A) (A) (A) (A) (A) (A) (A) (A) (A)
                 (A) (A) (A) (A) (A) (A) (A) (A) (A) (A) (A) (A)
                 (A) (A) (A) (A) (A) (A) (A) (A) (A) (A) (A) (A)
                 (A) (A) (A) (A) (A) (A) (A) (A) (A) (A) (A) (A)
                 (A) (A) (A) (A) (A) (A) (A) (A) (A) (A) (A) (A)
                 (A) (A) (A) (A) (A) (A) (A) (A) (A) (A) (A) (A)
                 (A) (A) (A) (A) (A) (A) (A) (A) (A) (A) (A) (A)
                 (A) (A) (A) (A) (A) (A) (A) (A) (A) (A) (A) (A)
                 (A) (A) (A) (A) (A) (A) (A) (A) (A) (A) (A) (A)
                 (A) (A) (A) (A) (A) (A) (A) (A) (A) (A) (A) (A)
                 (A) (A) (A) (A) (A) (A) (A) (A) (A) (A) (A) (A)
                 (A) (A) (A) (A) (A) (A) (A) (A) (A) (A) (A) (A)
                 (A) (A) (A) (A) (A) (A) (A) (A) (A) (A) (A) (A)
                 (A) (A) (A) (A) (A) (A) (A) (A) (A) (A) (A) (A)
                 (A) (A) (A) (A) (A) (A) (A) (A) (A) (A) (A) (A)
                 (A) (A) (A) (A) (A) (A) (A) (A) (A) (A) (A) (A)
                 (A) (A) (A) (A) (A) (A) (A) (A) (A) (A) (A) (A)
                 (A) (A) (A) (A) (A) (A) (A) (A) (A) (A) (A) (A)
                 (A) (A) (A) (A) (A) (A) (A) (A) (A) (A) (A) (A)
                 (A) (A) (A) (A) (A) (A) (A) (A) (A) (A) (A) (A)
                 (A) (A) (A) (A) (A) (A) (A) (A) (A) (A) (A) (A)
                 (A) (A) (A) (A) (A) (A)
 The electronic state is 1-A.
 Alpha  occ. eigenvalues --  -19.22025 -14.39806 -10.37535 -10.24828 -10.24818
 Alpha  occ. eigenvalues --  -10.23545  -1.06531  -0.92848  -0.75640  -0.71775
 Alpha  occ. eigenvalues --   -0.66491  -0.55046  -0.49822  -0.48361  -0.47682
 Alpha  occ. eigenvalues --   -0.44247  -0.43172  -0.42294  -0.40716  -0.38442
 Alpha  occ. eigenvalues --   -0.37793  -0.36522  -0.29654  -0.24917
 Alpha virt. eigenvalues --   -0.03352   0.04403   0.06936   0.08499   0.09994
 Alpha virt. eigenvalues --    0.10710   0.11677   0.11925   0.13449   0.13510
 Alpha virt. eigenvalues --    0.15640   0.16700   0.20128   0.21164   0.25131
 Alpha virt. eigenvalues --    0.25316   0.27142   0.28533   0.30373   0.33196
 Alpha virt. eigenvalues --    0.35160   0.36206   0.37324   0.38774   0.39170
 Alpha virt. eigenvalues --    0.40138   0.40962   0.42419   0.42983   0.43405
 Alpha virt. eigenvalues --    0.43660   0.44805   0.45546   0.45711   0.46964
 Alpha virt. eigenvalues --    0.47063   0.49819   0.50175   0.53895   0.57744
 Alpha virt. eigenvalues --    0.60098   0.61011   0.64335   0.65947   0.67385
 Alpha virt. eigenvalues --    0.70009   0.72752   0.76536   0.78442   0.79188
 Alpha virt. eigenvalues --    0.84249   0.84986   0.85836   0.89102   0.90168
 Alpha virt. eigenvalues --    0.91238   0.91685   0.95501   0.97188   0.98462
 Alpha virt. eigenvalues --    0.99374   1.00498   1.00855   1.03730   1.04634
 Alpha virt. eigenvalues --    1.05421   1.07073   1.09357   1.09738   1.13392
 Alpha virt. eigenvalues --    1.15090   1.16738   1.20327   1.20759   1.21237
 Alpha virt. eigenvalues --    1.22957   1.24430   1.25006   1.26680   1.28539
 Alpha virt. eigenvalues --    1.29048   1.30721   1.31984   1.33035   1.36410
 Alpha virt. eigenvalues --    1.36684   1.39481   1.42796   1.44087   1.46443
 Alpha virt. eigenvalues --    1.48045   1.50396   1.52298   1.55549   1.64264
 Alpha virt. eigenvalues --    1.66131   1.68151   1.73003   1.76965   1.81827
 Alpha virt. eigenvalues --    1.85389   1.87804   1.97194   2.10266   2.12723
 Alpha virt. eigenvalues --    2.17519   2.18534   2.20841   2.23333   2.24479
 Alpha virt. eigenvalues --    2.27874   2.29125   2.33174   2.39661   2.42129
 Alpha virt. eigenvalues --    2.45497   2.47873   2.49121   2.56290   2.58373
 Alpha virt. eigenvalues --    2.59030   2.61460   2.62351   2.64089   2.65229
 Alpha virt. eigenvalues --    2.70128   2.71307   2.72708   2.73522   2.74066
 Alpha virt. eigenvalues --    2.74886   2.75560   2.78070   2.80011   2.81836
 Alpha virt. eigenvalues --    2.87837   2.88921   2.91244   2.92610   2.93357
 Alpha virt. eigenvalues --    2.96609   2.97810   2.99473   3.01117   3.02659
 Alpha virt. eigenvalues --    3.02926   3.05370   3.05807   3.08130   3.09091
 Alpha virt. eigenvalues --    3.11646   3.12815   3.15547   3.17491   3.23722
 Alpha virt. eigenvalues --    3.25654   3.26623   3.27550   3.29700   3.31260
 Alpha virt. eigenvalues --    3.32623   3.34819   3.37857   3.38963   3.41411
 Alpha virt. eigenvalues --    3.41820   3.43122   3.43480   3.44197   3.45431
 Alpha virt. eigenvalues --    3.48342   3.49198   3.50327   3.54819   3.55263
 Alpha virt. eigenvalues --    3.58467   3.58805   3.61231   3.67256   3.68475
 Alpha virt. eigenvalues --    3.72186   3.73388   3.75413   3.76237   3.77726
 Alpha virt. eigenvalues --    3.79259   3.82376   3.84435   3.86921   3.87670
 Alpha virt. eigenvalues --    3.88735   3.90981   3.95056   3.96012   3.96703
 Alpha virt. eigenvalues --    4.01418   4.03819   4.05872   4.07129   4.08667
 Alpha virt. eigenvalues --    4.11601   4.14060   4.15713   4.16288   4.19384
 Alpha virt. eigenvalues --    4.21717   4.24685   4.26865   4.28809   4.29545
 Alpha virt. eigenvalues --    4.32751   4.33542   4.37323   4.40728   4.41648
 Alpha virt. eigenvalues --    4.44246   4.46152   4.51671   4.56343   4.67704
 Alpha virt. eigenvalues --    4.69185   4.71358   4.72085   4.75425   4.80117
 Alpha virt. eigenvalues --    4.83582   4.85990   4.86470   4.95841   4.97662
 Alpha virt. eigenvalues --    4.99897   5.00834   5.02089   5.03220   5.05398
 Alpha virt. eigenvalues --    5.07932   5.08893   5.10578   5.11538   5.11840
 Alpha virt. eigenvalues --    5.14640   5.15343   5.17701   5.18641   5.19680
 Alpha virt. eigenvalues --    5.20247   5.21223   5.24277   5.28469   5.29160
 Alpha virt. eigenvalues --    5.30966   5.35587   5.38966   5.42192   5.48363
 Alpha virt. eigenvalues --    5.50567   5.59938   5.63872   5.67201   5.75165
 Alpha virt. eigenvalues --    5.77645   5.78230   5.78768   5.80015   5.82043
 Alpha virt. eigenvalues --    5.85164   5.87410   5.88887   6.05890   6.15688
 Alpha virt. eigenvalues --    6.46332   6.47650   6.51877   6.86245   7.01076
 Alpha virt. eigenvalues --    7.06745   8.61099  10.24931  12.28876  13.49565
 Alpha virt. eigenvalues --   13.79648  13.91069
          Condensed to atoms (all electrons):
               1          2          3          4          5          6
     1  C    4.944315   0.385374   0.390233   0.389915   0.291904  -0.077156
     2  H    0.385374   0.567427  -0.023074  -0.023095  -0.045941   0.005601
     3  H    0.390233  -0.023074   0.544538  -0.021802  -0.020890   0.000405
     4  H    0.389915  -0.023095  -0.021802   0.544589  -0.020316   0.000327
     5  C    0.291904  -0.045941  -0.020890  -0.020316   4.610130   0.661096
     6  O   -0.077156   0.005601   0.000405   0.000327   0.661096   7.953631
     7  N   -0.085007   0.023206   0.003281   0.003239   0.281918  -0.114909
     8  C    0.003395  -0.000200   0.000041  -0.000604  -0.047241  -0.003238
     9  H   -0.000148  -0.000302   0.000007   0.000017   0.007515   0.000128
    10  H    0.000614   0.000318   0.000019   0.000000  -0.008322   0.011213
    11  H    0.000123  -0.000199  -0.000035  -0.000009  -0.004511  -0.000971
    12  C    0.002634  -0.000037  -0.000606   0.000051  -0.047902  -0.006942
    13  H   -0.000242  -0.000271   0.000018   0.000010   0.007522   0.000015
    14  H    0.000145  -0.000276   0.000014  -0.000035  -0.005402  -0.001104
    15  H    0.001082   0.000309  -0.000012   0.000010  -0.007678   0.014412
               7          8          9         10         11         12
     1  C   -0.085007   0.003395  -0.000148   0.000614   0.000123   0.002634
     2  H    0.023206  -0.000200  -0.000302   0.000318  -0.000199  -0.000037
     3  H    0.003281   0.000041   0.000007   0.000019  -0.000035  -0.000606
     4  H    0.003239  -0.000604   0.000017   0.000000  -0.000009   0.000051
     5  C    0.281918  -0.047241   0.007515  -0.008322  -0.004511  -0.047902
     6  O   -0.114909  -0.003238   0.000128   0.011213  -0.000971  -0.006942
     7  N    6.875463   0.266750  -0.031051  -0.066904  -0.025192   0.272796
     8  C    0.266750   4.904670   0.404555   0.399046   0.399165  -0.067469
     9  H   -0.031051   0.404555   0.554066  -0.042119  -0.017086  -0.003313
    10  H   -0.066904   0.399046  -0.042119   0.613211  -0.038174  -0.013755
    11  H   -0.025192   0.399165  -0.017086  -0.038174   0.554654   0.007885
    12  C    0.272796  -0.067469  -0.003313  -0.013755   0.007885   4.908154
    13  H   -0.029898  -0.002541   0.002257  -0.003389  -0.000001   0.402032
    14  H   -0.025117   0.008170  -0.000065  -0.000504  -0.000248   0.400007
    15  H   -0.069388  -0.015868  -0.002278   0.024745  -0.000451   0.399284
              13         14         15
     1  C   -0.000242   0.000145   0.001082
     2  H   -0.000271  -0.000276   0.000309
     3  H    0.000018   0.000014  -0.000012
     4  H    0.000010  -0.000035   0.000010
     5  C    0.007522  -0.005402  -0.007678
     6  O    0.000015  -0.001104   0.014412
     7  N   -0.029898  -0.025117  -0.069388
     8  C   -0.002541   0.008170  -0.015868
     9  H    0.002257  -0.000065  -0.002278
    10  H   -0.003389  -0.000504   0.024745
    11  H   -0.000001  -0.000248  -0.000451
    12  C    0.402032   0.400007   0.399284
    13  H    0.555149  -0.016407  -0.042386
    14  H   -0.016407   0.554606  -0.039922
    15  H   -0.042386  -0.039922   0.613800
 Mulliken charges:
               1
     1  C   -0.247179
     2  H    0.111161
     3  H    0.127865
     4  H    0.127703
     5  C    0.348117
     6  O   -0.442509
     7  N   -0.279185
     8  C   -0.248631
     9  H    0.127818
    10  H    0.124000
    11  H    0.125051
    12  C   -0.252820
    13  H    0.128134
    14  H    0.126137
    15  H    0.124340
 Sum of Mulliken charges =   0.00000
 Mulliken charges with hydrogens summed into heavy atoms:
               1
     1  C    0.119549
     5  C    0.348117
     6  O   -0.442509
     7  N   -0.279185
     8  C    0.128237
    12  C    0.125791
 Electronic spatial extent (au):  <R**2>=            614.6908
 Charge=              0.0000 electrons
 Dipole moment (field-independent basis, Debye):
    X=              0.3455    Y=              0.0201    Z=             -2.7857  Tot=              2.8071
 Quadrupole moment (field-independent basis, Debye-Ang):
   XX=            -31.9755   YY=            -33.8056   ZZ=            -44.2531
   XY=             -0.0195   XZ=              3.6251   YZ=              0.0666
 Traceless Quadrupole moment (field-independent basis, Debye-Ang):
   XX=              4.7025   YY=              2.8725   ZZ=             -7.5751
   XY=             -0.0195   XZ=              3.6251   YZ=              0.0666
 Octapole moment (field-independent basis, Debye-Ang**2):
  XXX=             -4.7234  YYY=             -0.0284  ZZZ=             -4.1910  XYY=             -0.6075
  XXY=              0.0688  XXZ=             -6.1285  XZZ=              3.0454  YZZ=              0.0325
  YYZ=             -0.2386  XYZ=              0.0237
 Hexadecapole moment (field-independent basis, Debye-Ang**3):
 XXXX=           -425.4749 YYYY=           -182.3944 ZZZZ=           -170.6536 XXXY=              0.1913
 XXXZ=             -1.9706 YYYX=              0.0565 YYYZ=             -0.2715 ZZZX=              6.4762
 ZZZY=              0.2434 XXYY=            -98.7184 XXZZ=           -103.7117 YYZZ=            -59.8335
 XXYZ=              0.1794 YYXZ=             -2.1925 ZZXY=             -0.2410
 N-N= 2.488396876013D+02 E-N=-1.168256873304D+03  KE= 2.855326545969D+02
 No NMR shielding tensors so no spin-rotation constants.
 Leave Link  601 at Mon Jul 29 17:10:05 2024, MaxMem=  4026531840 cpu:               1.0 elap:               1.0
 (Enter C:\G16W\l701.exe)
 ... and contract with generalized density number  0.
 Compute integral first derivatives.
 D1PCM: PCM CHGder 1st derivatives, ID1Alg=3 FixD1E=F DoIter=F DoCFld=F I1PDM=0.
 GePol: Maximum number of non-zero 1st derivatives   =     245
 Leave Link  701 at Mon Jul 29 17:10:08 2024, MaxMem=  4026531840 cpu:               3.0 elap:               2.5
 (Enter C:\G16W\l702.exe)
 L702 exits ... SP integral derivatives will be done elsewhere.
 Leave Link  702 at Mon Jul 29 17:10:09 2024, MaxMem=  4026531840 cpu:               1.0 elap:               0.5
 (Enter C:\G16W\l703.exe)
 Integral derivatives from FoFJK, PRISM(SPDF).
 Compute integral first derivatives, UseDBF=F ICtDFT=           0.
 Calling FoFJK, ICntrl=      2127 FMM=F ISym2X=0 I1Cent= 0 IOpClX= 0 NMat=1 NMatS=1 NMatT=0.
 FoFJK:  IHMeth= 1 ICntrl=    2127 DoSepK=F KAlg= 0 I1Cent=           0 FoldK=F
 IRaf=         0 NMat=       1 IRICut=       1 DoRegI=T DoRafI=F ISym2E= 0 IDoP0=0 IntGTp=1.
 FoFCou: FMM=F IPFlag=           0 FMFlag=      100000 FMFlg1=         800
         NFxFlg=           0 DoJE=F BraDBF=F KetDBF=F FulRan=T
         wScrn=  0.000000 ICntrl=      2127 IOpCl=  0 I1Cent=           0 NGrid=           0
         NMat0=    1 NMatS0=      1 NMatT0=    0 NMatD0=    1 NMtDS0=    0 NMtDT0=    0
 Symmetry not used in FoFCou.
 Leave Link  703 at Mon Jul 29 17:10:27 2024, MaxMem=  4026531840 cpu:              18.0 elap:              18.1
 (Enter C:\G16W\l716.exe)
 Dipole        = 1.35920277D-01 7.91041225D-03-1.09597111D+00
 ***** Axes restored to original set *****
 -------------------------------------------------------------------
 Center     Atomic                   Forces (Hartrees/Bohr)
 Number     Number              X              Y              Z
 -------------------------------------------------------------------
      1        6           0.020376654    0.007058619    0.037236017
      2        1           0.002598296   -0.011112494   -0.002159408
      3        1           0.003500097    0.008440503   -0.009599858
      4        1          -0.012975634    0.002601092    0.000509291
      5        6          -0.012525510    0.051880448    0.008511081
      6        8           0.015166207   -0.064093955   -0.011910368
      7        7          -0.011617197   -0.000951756   -0.019665395
      8        6           0.006634482    0.001574351   -0.020261930
      9        1           0.005767242   -0.008720412    0.007454449
     10        1          -0.001671934    0.014647960    0.010954237
     11        1          -0.012582430   -0.004136857    0.000753641
     12        6          -0.019738420   -0.007886441   -0.004962196
     13        1           0.007658475   -0.007660358    0.006778161
     14        1           0.007012737    0.001768578   -0.011158038
     15        1           0.002396935    0.016590723    0.007520314
 -------------------------------------------------------------------
 Cartesian Forces:  Max     0.064093955 RMS     0.016700123
 Leave Link  716 at Mon Jul 29 17:10:28 2024, MaxMem=  4026531840 cpu:               0.0 elap:               0.5
 (Enter C:\G16W\l103.exe)

 GradGradGradGradGradGradGradGradGradGradGradGradGradGradGradGradGradGrad
 Berny optimization.
 FormGI is forming the generalized inverse of G from B-inverse, IUseBI=4.
 Internal  Forces:  Max     0.066917564 RMS     0.011686949
 Search for a local minimum.
 Step number   1 out of a maximum of   70
 All quantities printed in internal units (Hartrees-Bohrs-Radians)
 RMS Force = .11687D-01 SwitMx=.10000D-02 MixMth= 1
 Mixed Optimization -- RFO/linear search
 Second derivative matrix not updated -- first step.
 ITU=  0
     Eigenvalues ---    0.00237   0.00448   0.00766   0.00766   0.00766
     Eigenvalues ---    0.03454   0.07243   0.07243   0.07537   0.07537
     Eigenvalues ---    0.07537   0.07537   0.16000   0.16000   0.16000
     Eigenvalues ---    0.16000   0.16000   0.16000   0.16000   0.16000
     Eigenvalues ---    0.16000   0.16276   0.17820   0.25000   0.25000
     Eigenvalues ---    0.28519   0.35740   0.35740   0.35740   0.37230
     Eigenvalues ---    0.37230   0.37230   0.37230   0.37230   0.37230
     Eigenvalues ---    0.37230   0.37230   0.37230   0.80209
 RFO step:  Lambda=-1.72017707D-02 EMin= 2.36824151D-03
 Linear search not attempted -- first point.
 Iteration  1 RMS(Cart)=  0.05112298 RMS(Int)=  0.00065803
 Iteration  2 RMS(Cart)=  0.00076670 RMS(Int)=  0.00018913
 Iteration  3 RMS(Cart)=  0.00000067 RMS(Int)=  0.00018913
 ITry= 1 IFail=0 DXMaxC= 1.38D-01 DCOld= 1.00D+10 DXMaxT= 3.00D-01 DXLimC= 3.00D+00 Rises=F
 Variable       Old X    -DE/DX   Delta X   Delta X   Delta X     New X
                                 (Linear)    (Quad)   (Total)
    R1        2.02201   0.01134   0.00000   0.02912   0.02912   2.05113
    R2        2.02201   0.01298   0.00000   0.03333   0.03333   2.05534
    R3        2.02201   0.01298   0.00000   0.03332   0.03332   2.05532
    R4        2.91018  -0.02901   0.00000  -0.09594  -0.09594   2.81424
    R5        2.37803  -0.06692   0.00000  -0.08168  -0.08168   2.29635
    R6        2.77790  -0.02667   0.00000  -0.07119  -0.07119   2.70671
    R7        2.77790  -0.00018   0.00000  -0.00048  -0.00048   2.77742
    R8        2.77790  -0.00120   0.00000  -0.00321  -0.00321   2.77469
    R9        2.02201   0.01284   0.00000   0.03296   0.03296   2.05496
   R10        2.02201   0.01770   0.00000   0.04544   0.04544   2.06744
   R11        2.02201   0.01300   0.00000   0.03337   0.03337   2.05538
   R12        2.02201   0.01277   0.00000   0.03277   0.03277   2.05478
   R13        2.02201   0.01309   0.00000   0.03361   0.03361   2.05561
   R14        2.02201   0.01776   0.00000   0.04560   0.04560   2.06760
    A1        1.91063   0.00039   0.00000   0.00889   0.00894   1.91958
    A2        1.91063   0.00039   0.00000   0.00876   0.00882   1.91945
    A3        1.91063   0.00544   0.00000   0.03732   0.03738   1.94801
    A4        1.91063   0.00021   0.00000  -0.01206  -0.01273   1.89790
    A5        1.91063  -0.00320   0.00000  -0.02137  -0.02165   1.88899
    A6        1.91063  -0.00323   0.00000  -0.02153  -0.02181   1.88883
    A7        2.09836   0.00307   0.00000   0.01148   0.01148   2.10984
    A8        2.09241  -0.00943   0.00000  -0.03528  -0.03528   2.05713
    A9        2.09241   0.00636   0.00000   0.02379   0.02379   2.11621
   A10        1.91063  -0.00196   0.00000  -0.01524  -0.01520   1.89543
   A11        1.91063  -0.00215   0.00000  -0.01630  -0.01627   1.89437
   A12        1.91063   0.00340   0.00000   0.01268   0.01251   1.92314
   A13        1.91063  -0.00212   0.00000  -0.01462  -0.01460   1.89603
   A14        1.91063   0.00705   0.00000   0.04321   0.04299   1.95363
   A15        1.91063   0.00194   0.00000   0.01018   0.00991   1.92055
   A16        1.91063  -0.00208   0.00000  -0.01020  -0.01014   1.90050
   A17        1.91063  -0.00158   0.00000  -0.01581  -0.01583   1.89480
   A18        1.91063  -0.00321   0.00000  -0.01276  -0.01324   1.89740
   A19        1.91063  -0.00268   0.00000  -0.01823  -0.01818   1.89245
   A20        1.91063   0.00180   0.00000   0.00970   0.00941   1.92004
   A21        1.91063   0.00702   0.00000   0.04316   0.04296   1.95359
   A22        1.91063  -0.00127   0.00000  -0.01426  -0.01429   1.89634
   A23        1.91063  -0.00196   0.00000  -0.01015  -0.01002   1.90061
   A24        1.91063  -0.00291   0.00000  -0.01022  -0.01072   1.89992
    D1        3.14159   0.00003   0.00000   0.00112   0.00112  -3.14048
    D2       -0.00001  -0.00002   0.00000  -0.00137  -0.00137  -0.00137
    D3        1.04719  -0.00182   0.00000  -0.01953  -0.01923   1.02796
    D4       -2.09440  -0.00187   0.00000  -0.02202  -0.02172  -2.11612
    D5       -1.04720   0.00186   0.00000   0.02152   0.02121  -1.02599
    D6        2.09439   0.00180   0.00000   0.01903   0.01872   2.11311
    D7       -2.09632   0.00074   0.00000  -0.00499  -0.00487  -2.10119
    D8        2.09247  -0.00090   0.00000  -0.00120  -0.00131   2.09116
    D9        1.04527   0.00069   0.00000  -0.00747  -0.00737   1.03791
   D10       -1.04912  -0.00096   0.00000  -0.00368  -0.00380  -1.05293
   D11        2.85822   0.00099   0.00000   0.03984   0.03991   2.89813
   D12       -1.33057   0.00145   0.00000   0.04486   0.04468  -1.28589
   D13        0.76382   0.00303   0.00000   0.06192   0.06213   0.82596
   D14       -1.33057  -0.00077   0.00000   0.01831   0.01831  -1.31226
   D15        0.76382  -0.00030   0.00000   0.02332   0.02308   0.78691
   D16        2.85822   0.00128   0.00000   0.04039   0.04053   2.89875
   D17       -2.95621  -0.00066   0.00000  -0.02734  -0.02744  -2.98365
   D18       -0.86181  -0.00276   0.00000  -0.05003  -0.05024  -0.91206
   D19        1.23258  -0.00093   0.00000  -0.03018  -0.02997   1.20261
   D20        1.23258   0.00097   0.00000  -0.00646  -0.00649   1.22609
   D21       -2.95621  -0.00113   0.00000  -0.02914  -0.02929  -2.98550
   D22       -0.86181   0.00071   0.00000  -0.00930  -0.00902  -0.87083
         Item               Value     Threshold  Converged?
 Maximum Force            0.066918     0.000015     NO 
 RMS     Force            0.011687     0.000010     NO 
 Maximum Displacement     0.137614     0.000060     NO 
 RMS     Displacement     0.051204     0.000040     NO 
 Predicted change in Energy=-9.116177D-03
 Lowest energy point so far.  Saving SCF results.
 GradGradGradGradGradGradGradGradGradGradGradGradGradGradGradGradGradGrad

 Leave Link  103 at Mon Jul 29 17:10:29 2024, MaxMem=  4026531840 cpu:               0.0 elap:               0.5
 (Enter C:\G16W\l202.exe)
                          Input orientation:                          
 ---------------------------------------------------------------------
 Center     Atomic      Atomic             Coordinates (Angstroms)
 Number     Number       Type             X           Y           Z
 ---------------------------------------------------------------------
      1          6           0       -1.307285    1.091602    0.062297
      2          1           0       -0.954544    0.065315    0.041682
      3          1           0       -0.951802    1.624555   -0.816651
      4          1           0       -2.394739    1.110730    0.066517
      5          6           0       -0.824143    1.813496    1.271945
      6          8           0       -1.121311    2.975873    1.464892
      7          7           0       -0.002985    1.092874    2.198211
      8          6           0       -0.670734    1.083062    3.507472
      9          1           0       -0.187104    0.341269    4.138637
     10          1           0       -0.616449    2.057836    4.001235
     11          1           0       -1.716762    0.809018    3.390311
     12          6           0        1.295500    1.771210    2.296724
     13          1           0        1.970283    1.140305    2.870259
     14          1           0        1.715373    1.917371    1.303942
     15          1           0        1.212255    2.743216    2.792096
 ---------------------------------------------------------------------
                    Distance matrix (angstroms):
                    1          2          3          4          5
     1  C    0.000000
     2  H    1.085411   0.000000
     3  H    1.087638   1.779881   0.000000
     4  H    1.087630   1.779795   1.768069   0.000000
     5  C    1.489230   2.141655   2.101007   2.100883   0.000000
     6  O    2.356340   3.244177   2.657110   2.656281   1.215178
     7  N    2.502664   2.571372   3.205048   3.203892   1.432328
     8  C    3.503499   3.623266   4.366950   3.848783   2.356830
     9  H    4.293524   4.177338   5.175564   4.695517   3.284995
    10  H    4.114134   4.445504   4.848940   4.420558   2.748065
    11  H    3.364997   3.513884   4.353021   3.405626   2.508629
    12  C    3.497002   3.613584   3.842522   4.362101   2.354749
    13  H    4.316188   4.208451   4.729311   5.187992   3.288861
    14  H    3.370466   3.485953   3.420011   4.367484   2.541841
    15  H    4.065429   4.408054   4.354032   4.806683   2.705948
                    6          7          8          9         10
     6  O    0.000000
     7  N    2.309566   0.000000
     8  C    2.820972   1.469745   0.000000
     9  H    3.868176   2.089033   1.087439   0.000000
    10  H    2.744214   2.135037   1.094044   1.774772   0.000000
    11  H    2.959233   2.106823   1.087658   1.765965   1.772981
    12  C    2.825621   1.468301   2.409468   2.763238   2.577413
    13  H    3.860352   2.085111   2.717405   2.627082   2.968527
    14  H    3.032014   2.105296   3.353376   3.760188   3.568265
    15  H    2.694648   2.133809   2.610273   3.088806   2.296937
                   11         12         13         14         15
    11  H    0.000000
    12  C    3.345962   0.000000
    13  H    3.738249   1.087343   0.000000
    14  H    4.166645   1.087784   1.766964   0.000000
    15  H    3.560635   1.094129   1.774835   1.774753   0.000000
 Stoichiometry    C4H9NO
 Framework group  C1[X(C4H9NO)]
 Deg. of freedom    39
 Full point group                 C1      NOp   1
 RotChk:  IX=0 Diff= 1.83D-02
 Largest Abelian subgroup         C1      NOp   1
 Largest concise Abelian subgroup C1      NOp   1
                         Standard orientation:                         
 ---------------------------------------------------------------------
 Center     Atomic      Atomic             Coordinates (Angstroms)
 Number     Number       Type             X           Y           Z
 ---------------------------------------------------------------------
      1          6           0       -1.923702    0.014269   -0.700689
      2          1           0       -1.676681    0.038295   -1.757344
      3          1           0       -2.508787    0.891999   -0.435692
      4          1           0       -2.507130   -0.875619   -0.475631
      5          6           0       -0.700342   -0.003910    0.148350
      6          8           0       -0.782626   -0.032471    1.360402
      7          7           0        0.571678    0.010208   -0.509928
      8          6           0        1.311949   -1.199888   -0.125458
      9          1           0        2.156008   -1.320032   -0.800479
     10          1           0        1.685053   -1.141771    0.901356
     11          1           0        0.670175   -2.073488   -0.214614
     12          6           0        1.304442    1.209213   -0.084071
     13          1           0        2.195018    1.304859   -0.700546
     14          1           0        0.686497    2.093109   -0.226007
     15          1           0        1.605039    1.152849    0.966445
 ---------------------------------------------------------------------
 Rotational constants (GHZ):           5.2006066           2.7581436           2.6789178
 Leave Link  202 at Mon Jul 29 17:10:30 2024, MaxMem=  4026531840 cpu:               0.0 elap:               0.5
 (Enter C:\G16W\l301.exe)
 Standard basis: CC-pVTZ (5D, 7F)
 Ernie: Thresh=  0.10000D-02 Tol=  0.10000D-05 Strict=F.
 Ernie:  18 primitive shells out of 228 were deleted.
 There are   345 symmetry adapted cartesian basis functions of A   symmetry.
 There are   306 symmetry adapted basis functions of A   symmetry.
   306 basis functions,   465 primitive gaussians,   345 cartesian basis functions
    24 alpha electrons       24 beta electrons
       nuclear repulsion energy       252.2064102004 Hartrees.
 IExCor= 4235 DFT=T Ex+Corr=M06 ExCW=0 ScaHFX=  0.270000
 ScaDFX=  1.000000  1.000000  1.000000  1.000000 ScalE2=  1.000000  1.000000
 IRadAn=      5 IRanWt=     -1 IRanGd=            0 ICorTp=0 IEmpDi=  4
 NAtoms=   15 NActive=   15 NUniq=   15 SFac= 1.00D+00 NAtFMM=   60 NAOKFM=F Big=F
 Integral buffers will be    131072 words long.
 Raffenetti 2 integral format.
 Two-electron integral symmetry is turned on.
 ------------------------------------------------------------------------------
 Polarizable Continuum Model (PCM)
 =================================
 Model                : PCM.
 Atomic radii         : SMD-Coulomb.
 Polarization charges : Total charges.
 Charge compensation  : None.
 Solution method      : On-the-fly selection.
 Cavity type          : VdW (van der Waals Surface) (Alpha=1.000).
 Cavity algorithm     : GePol (No added spheres)
                        Default sphere list used, NSphG=   15.
                        Lebedev-Laikov grids with approx.  5.0 points / Ang**2.
                        Smoothing algorithm: York/Karplus (Gamma=1.0000).
                        Polarization charges: spherical gaussians, with
                                              point-specific exponents (IZeta= 3).
                        Self-potential: point-specific (ISelfS= 7).
                        Self-field    : sphere-specific E.n sum rule (ISelfD= 2).
 1st derivatives      : Analytical E(r).r(x)/FMM algorithm (CHGder, D1EAlg=3).
                        Cavity 1st derivative terms included.
 Solvent              : Water, Eps=  78.355300 Eps(inf)=   1.777849
 ------------------------------------------------------------------------------
 Spheres list:
 ISph  on   Nord     Re0    Alpha      Xe            Ye            Ze
    1   C      1    1.8500  1.000     -1.923702      0.014269     -0.700689
    2   H      2    1.2000  1.000     -1.676681      0.038295     -1.757344
    3   H      3    1.2000  1.000     -2.508787      0.891999     -0.435692
    4   H      4    1.2000  1.000     -2.507130     -0.875619     -0.475631
    5   C      5    1.8500  1.000     -0.700342     -0.003910      0.148350
    6   O      6    1.5200  1.000     -0.782626     -0.032471      1.360402
    7   N      7    1.8900  1.000      0.571678      0.010208     -0.509928
    8   C      8    1.8500  1.000      1.311949     -1.199888     -0.125458
    9   H      9    1.2000  1.000      2.156008     -1.320032     -0.800479
   10   H     10    1.2000  1.000      1.685053     -1.141771      0.901356
   11   H     11    1.2000  1.000      0.670175     -2.073488     -0.214614
   12   C     12    1.8500  1.000      1.304442      1.209213     -0.084071
   13   H     13    1.2000  1.000      2.195018      1.304859     -0.700546
   14   H     14    1.2000  1.000      0.686497      2.093109     -0.226007
   15   H     15    1.2000  1.000      1.605039      1.152849      0.966445
 ------------------------------------------------------------------------------
 GePol: Number of generator spheres                  =      15
 GePol: Total number of spheres                      =      15
 GePol: Number of exposed spheres                    =      15 (100.00%)
 GePol: Number of points                             =    1110
 GePol: Average weight of points                     =       0.12
 GePol: Minimum weight of points                     =   0.29D-06
 GePol: Maximum weight of points                     =    0.21991
 GePol: Number of points with low weight             =      70
 GePol: Fraction of low-weight points (<1% of avg)   =       6.31%
 GePol: Cavity surface area                          =    129.134 Ang**2
 GePol: Cavity volume                                =    101.440 Ang**3
 ------------------------------------------------------------------------------
 Atomic radii for non-electrostatic terms: SMD-CDS.
 ------------------------------------------------------------------------------
 PCM non-electrostatic energy =         0.0040012554 Hartrees.
 Nuclear repulsion after PCM non-electrostatic terms =      252.2104114558 Hartrees.
 Leave Link  301 at Mon Jul 29 17:10:31 2024, MaxMem=  4026531840 cpu:               0.0 elap:               0.5
 (Enter C:\G16W\l302.exe)
 NPDir=0 NMtPBC=     1 NCelOv=     1 NCel=       1 NClECP=     1 NCelD=      1
         NCelK=      1 NCelE2=     1 NClLst=     1 CellRange=     0.0.
 One-electron integrals computed using PRISM.
 One-electron integral symmetry used in STVInt
 NBasis=   306 RedAO= T EigKep=  5.98D-04  NBF=   306
 NBsUse=   306 1.00D-06 EigRej= -1.00D+00 NBFU=   306
 Precomputing XC quadrature grid using
 IXCGrd= 4 IRadAn=           5 IRanWt=          -1 IRanGd=           0 AccXCQ= 0.00D+00.
 Generated NRdTot=       0 NPtTot=           0 NUsed=           0 NTot=          32
 NSgBfM=   345   345   345   345   345 MxSgAt=    15 MxSgA2=    15.
 Leave Link  302 at Mon Jul 29 17:10:33 2024, MaxMem=  4026531840 cpu:               1.0 elap:               1.5
 (Enter C:\G16W\l303.exe)
 DipDrv:  MaxL=1.
 Leave Link  303 at Mon Jul 29 17:10:34 2024, MaxMem=  4026531840 cpu:               0.0 elap:               0.6
 (Enter C:\G16W\l401.exe)
 Initial guess from the checkpoint file:  "dimethylacetamide.chk"
 B after Tr=     0.000000    0.000000    0.000000
         Rot=    0.999978   -0.006096    0.002628   -0.000628 Ang=  -0.76 deg.
 Guess basis will be translated and rotated to current coordinates.
 JPrj=2 DoOrth=T DoCkMO=T.
 Generating alternative initial guess.
 ExpMin= 1.03D-01 ExpMax= 1.53D+04 ExpMxC= 5.22D+02 IAcc=3 IRadAn=         5 AccDes= 0.00D+00
 Harris functional with IExCor= 1009 and IRadAn=       5 diagonalized for initial guess.
 HarFok:  IExCor= 1009 AccDes= 0.00D+00 IRadAn=         5 IDoV= 1 UseB2=F ITyADJ=14
 ICtDFT=  3500011 ScaDFX=  1.000000  1.000000  1.000000  1.000000
 FoFCou: FMM=F IPFlag=           0 FMFlag=      100000 FMFlg1=           0
         NFxFlg=           0 DoJE=T BraDBF=F KetDBF=T FulRan=T
         wScrn=  0.000000 ICntrl=       500 IOpCl=  0 I1Cent=   200000004 NGrid=           0
         NMat0=    1 NMatS0=      1 NMatT0=    0 NMatD0=    1 NMtDS0=    0 NMtDT0=    0
 Petite list used in FoFCou.
 Harris En= -287.678370901426    
 Leave Link  401 at Mon Jul 29 17:10:39 2024, MaxMem=  4026531840 cpu:               4.0 elap:               3.9
 (Enter C:\G16W\l502.exe)
 Integral symmetry usage will be decided dynamically.
 Closed shell SCF:
 Using DIIS extrapolation, IDIIS=  1040.
 NGot=  4026531840 LenX=  4026279974 LenY=  4026160508
 Requested convergence on RMS density matrix=1.00D-08 within 128 cycles.
 Requested convergence on MAX density matrix=1.00D-06.
 Requested convergence on             energy=1.00D-06.
 No special actions if energy rises.

 Cycle   1  Pass 1  IDiag  1:
 FoFJK:  IHMeth= 1 ICntrl=       0 DoSepK=F KAlg= 0 I1Cent=           0 FoldK=F
 IRaf= 980000000 NMat=       1 IRICut=       1 DoRegI=T DoRafI=F ISym2E= 0 IDoP0=0 IntGTp=1.
 FoFCou: FMM=F IPFlag=           0 FMFlag=      100000 FMFlg1=           0
         NFxFlg=           0 DoJE=F BraDBF=F KetDBF=F FulRan=T
         wScrn=  0.000000 ICntrl=         0 IOpCl=  0 I1Cent=           0 NGrid=           0
         NMat0=    1 NMatS0=      1 NMatT0=    0 NMatD0=    1 NMtDS0=    0 NMtDT0=    0
 Symmetry not used in FoFCou.
 Inv3:  Mode=1 IEnd=     3696300.
 Iteration    1 A*A^-1 deviation from unit magnitude is 4.22D-15 for    275.
 Iteration    1 A*A^-1 deviation from orthogonality  is 3.75D-15 for    777    332.
 Iteration    1 A^-1*A deviation from unit magnitude is 3.55D-15 for    376.
 Iteration    1 A^-1*A deviation from orthogonality  is 4.05D-15 for    724    720.
 E= -287.706503187648    
 DIIS: error= 3.57D-03 at cycle   1 NSaved=   1.
 NSaved= 1 IEnMin= 1 EnMin= -287.706503187648     IErMin= 1 ErrMin= 3.57D-03
 ErrMax= 3.57D-03  0.00D+00 EMaxC= 1.00D-01 BMatC= 4.03D-03 BMatP= 4.03D-03
 IDIUse=3 WtCom= 9.64D-01 WtEn= 3.57D-02
 Coeff-Com:  0.100D+01
 Coeff-En:   0.100D+01
 Coeff:      0.100D+01
 Gap=     0.738 Goal=   None    Shift=    0.000
 GapD=    0.738 DampG=2.000 DampE=1.000 DampFc=2.0000 IDamp=-1.
 RMSDP=2.33D-04 MaxDP=8.54D-03              OVMax= 1.29D-02

 Cycle   2  Pass 1  IDiag  1:
 E= -287.709373059932     Delta-E=       -0.002869872285 Rises=F Damp=F
 DIIS: error= 1.14D-03 at cycle   2 NSaved=   2.
 NSaved= 2 IEnMin= 2 EnMin= -287.709373059932     IErMin= 2 ErrMin= 1.14D-03
 ErrMax= 1.14D-03  0.00D+00 EMaxC= 1.00D-01 BMatC= 5.69D-04 BMatP= 4.03D-03
 IDIUse=3 WtCom= 9.89D-01 WtEn= 1.14D-02
 Coeff-Com:  0.182D+00 0.818D+00
 Coeff-En:   0.000D+00 0.100D+01
 Coeff:      0.180D+00 0.820D+00
 Gap=     0.233 Goal=   None    Shift=    0.000
 RMSDP=1.03D-04 MaxDP=3.92D-03 DE=-2.87D-03 OVMax= 8.00D-03

 Cycle   3  Pass 1  IDiag  1:
 E= -287.709571318803     Delta-E=       -0.000198258871 Rises=F Damp=F
 DIIS: error= 1.01D-03 at cycle   3 NSaved=   3.
 NSaved= 3 IEnMin= 3 EnMin= -287.709571318803     IErMin= 3 ErrMin= 1.01D-03
 ErrMax= 1.01D-03  0.00D+00 EMaxC= 1.00D-01 BMatC= 3.52D-04 BMatP= 5.69D-04
 IDIUse=3 WtCom= 9.90D-01 WtEn= 1.01D-02
 Coeff-Com: -0.102D-01 0.438D+00 0.572D+00
 Coeff-En:   0.000D+00 0.372D+00 0.628D+00
 Coeff:     -0.101D-01 0.437D+00 0.573D+00
 Gap=     0.231 Goal=   None    Shift=    0.000
 RMSDP=4.91D-05 MaxDP=2.01D-03 DE=-1.98D-04 OVMax= 4.68D-03

 Cycle   4  Pass 1  IDiag  1:
 E= -287.709846766034     Delta-E=       -0.000275447231 Rises=F Damp=F
 DIIS: error= 3.39D-04 at cycle   4 NSaved=   4.
 NSaved= 4 IEnMin= 4 EnMin= -287.709846766034     IErMin= 4 ErrMin= 3.39D-04
 ErrMax= 3.39D-04  0.00D+00 EMaxC= 1.00D-01 BMatC= 1.52D-05 BMatP= 3.52D-04
 IDIUse=3 WtCom= 9.97D-01 WtEn= 3.39D-03
 Coeff-Com: -0.106D-01 0.204D+00 0.305D+00 0.501D+00
 Coeff-En:   0.000D+00 0.000D+00 0.000D+00 0.100D+01
 Coeff:     -0.106D-01 0.204D+00 0.304D+00 0.503D+00
 Gap=     0.230 Goal=   None    Shift=    0.000
 RMSDP=7.64D-06 MaxDP=4.32D-04 DE=-2.75D-04 OVMax= 1.09D-03

 Cycle   5  Pass 1  IDiag  1:
 E= -287.709856299042     Delta-E=       -0.000009533008 Rises=F Damp=F
 DIIS: error= 9.40D-05 at cycle   5 NSaved=   5.
 NSaved= 5 IEnMin= 5 EnMin= -287.709856299042     IErMin= 5 ErrMin= 9.40D-05
 ErrMax= 9.40D-05  0.00D+00 EMaxC= 1.00D-01 BMatC= 1.89D-06 BMatP= 1.52D-05
 IDIUse=1 WtCom= 1.00D+00 WtEn= 0.00D+00
 Coeff-Com: -0.300D-02 0.161D-01 0.430D-01 0.274D+00 0.670D+00
 Coeff:     -0.300D-02 0.161D-01 0.430D-01 0.274D+00 0.670D+00
 Gap=     0.230 Goal=   None    Shift=    0.000
 RMSDP=3.36D-06 MaxDP=1.35D-04 DE=-9.53D-06 OVMax= 2.96D-04

 Cycle   6  Pass 1  IDiag  1:
 E= -287.709857610768     Delta-E=       -0.000001311726 Rises=F Damp=F
 DIIS: error= 1.76D-05 at cycle   6 NSaved=   6.
 NSaved= 6 IEnMin= 6 EnMin= -287.709857610768     IErMin= 6 ErrMin= 1.76D-05
 ErrMax= 1.76D-05  0.00D+00 EMaxC= 1.00D-01 BMatC= 1.24D-07 BMatP= 1.89D-06
 IDIUse=1 WtCom= 1.00D+00 WtEn= 0.00D+00
 Coeff-Com: -0.568D-03-0.647D-02 0.462D-03 0.105D+00 0.325D+00 0.577D+00
 Coeff:     -0.568D-03-0.647D-02 0.462D-03 0.105D+00 0.325D+00 0.577D+00
 Gap=     0.230 Goal=   None    Shift=    0.000
 RMSDP=7.86D-07 MaxDP=3.62D-05 DE=-1.31D-06 OVMax= 7.83D-05

 Cycle   7  Pass 1  IDiag  1:
 E= -287.709857699796     Delta-E=       -0.000000089028 Rises=F Damp=F
 DIIS: error= 4.78D-06 at cycle   7 NSaved=   7.
 NSaved= 7 IEnMin= 7 EnMin= -287.709857699796     IErMin= 7 ErrMin= 4.78D-06
 ErrMax= 4.78D-06  0.00D+00 EMaxC= 1.00D-01 BMatC= 9.22D-09 BMatP= 1.24D-07
 IDIUse=1 WtCom= 1.00D+00 WtEn= 0.00D+00
 Coeff-Com:  0.114D-03-0.474D-02-0.493D-02 0.113D-01 0.516D-01 0.246D+00
 Coeff-Com:  0.701D+00
 Coeff:      0.114D-03-0.474D-02-0.493D-02 0.113D-01 0.516D-01 0.246D+00
 Coeff:      0.701D+00
 Gap=     0.230 Goal=   None    Shift=    0.000
 RMSDP=3.39D-07 MaxDP=1.41D-05 DE=-8.90D-08 OVMax= 2.75D-05

 Cycle   8  Pass 1  IDiag  1:
 E= -287.709857706851     Delta-E=       -0.000000007055 Rises=F Damp=F
 DIIS: error= 2.15D-06 at cycle   8 NSaved=   8.
 NSaved= 8 IEnMin= 8 EnMin= -287.709857706851     IErMin= 8 ErrMin= 2.15D-06
 ErrMax= 2.15D-06  0.00D+00 EMaxC= 1.00D-01 BMatC= 7.24D-10 BMatP= 9.22D-09
 IDIUse=1 WtCom= 1.00D+00 WtEn= 0.00D+00
 Coeff-Com:  0.679D-04-0.136D-02-0.192D-02-0.332D-02-0.521D-02 0.569D-01
 Coeff-Com:  0.296D+00 0.659D+00
 Coeff:      0.679D-04-0.136D-02-0.192D-02-0.332D-02-0.521D-02 0.569D-01
 Coeff:      0.296D+00 0.659D+00
 Gap=     0.230 Goal=   None    Shift=    0.000
 RMSDP=1.31D-07 MaxDP=5.08D-06 DE=-7.06D-09 OVMax= 7.67D-06

 Cycle   9  Pass 1  IDiag  1:
 E= -287.709857707493     Delta-E=       -0.000000000642 Rises=F Damp=F
 DIIS: error= 5.04D-07 at cycle   9 NSaved=   9.
 NSaved= 9 IEnMin= 9 EnMin= -287.709857707493     IErMin= 9 ErrMin= 5.04D-07
 ErrMax= 5.04D-07  0.00D+00 EMaxC= 1.00D-01 BMatC= 5.57D-11 BMatP= 7.24D-10
 IDIUse=1 WtCom= 1.00D+00 WtEn= 0.00D+00
 Coeff-Com:  0.213D-04-0.756D-04-0.307D-03-0.223D-02-0.744D-02-0.241D-02
 Coeff-Com:  0.421D-01 0.252D+00 0.718D+00
 Coeff:      0.213D-04-0.756D-04-0.307D-03-0.223D-02-0.744D-02-0.241D-02
 Coeff:      0.421D-01 0.252D+00 0.718D+00
 Gap=     0.230 Goal=   None    Shift=    0.000
 RMSDP=3.46D-08 MaxDP=2.31D-06 DE=-6.42D-10 OVMax= 1.95D-06

 Cycle  10  Pass 1  IDiag  1:
 E= -287.709857707568     Delta-E=       -0.000000000075 Rises=F Damp=F
 DIIS: error= 7.18D-08 at cycle  10 NSaved=  10.
 NSaved=10 IEnMin=10 EnMin= -287.709857707568     IErMin=10 ErrMin= 7.18D-08
 ErrMax= 7.18D-08  0.00D+00 EMaxC= 1.00D-01 BMatC= 1.39D-12 BMatP= 5.57D-11
 IDIUse=1 WtCom= 1.00D+00 WtEn= 0.00D+00
 Coeff-Com: -0.615D-06 0.845D-04 0.723D-04-0.201D-03-0.140D-02-0.444D-02
 Coeff-Com: -0.100D-01 0.996D-02 0.113D+00 0.893D+00
 Coeff:     -0.615D-06 0.845D-04 0.723D-04-0.201D-03-0.140D-02-0.444D-02
 Coeff:     -0.100D-01 0.996D-02 0.113D+00 0.893D+00
 Gap=     0.230 Goal=   None    Shift=    0.000
 RMSDP=1.05D-08 MaxDP=7.62D-07 DE=-7.51D-11 OVMax= 5.68D-07

 Cycle  11  Pass 1  IDiag  1:
 E= -287.709857707543     Delta-E=        0.000000000026 Rises=F Damp=F
 DIIS: error= 4.57D-08 at cycle  11 NSaved=  11.
 NSaved=11 IEnMin=10 EnMin= -287.709857707568     IErMin=11 ErrMin= 4.57D-08
 ErrMax= 4.57D-08  0.00D+00 EMaxC= 1.00D-01 BMatC= 2.66D-13 BMatP= 1.39D-12
 IDIUse=1 WtCom= 1.00D+00 WtEn= 0.00D+00
 Coeff-Com: -0.166D-05 0.406D-04 0.500D-04 0.516D-04-0.171D-03-0.177D-02
 Coeff-Com: -0.664D-02-0.110D-01-0.144D-02 0.358D+00 0.663D+00
 Coeff:     -0.166D-05 0.406D-04 0.500D-04 0.516D-04-0.171D-03-0.177D-02
 Coeff:     -0.664D-02-0.110D-01-0.144D-02 0.358D+00 0.663D+00
 Gap=     0.230 Goal=   None    Shift=    0.000
 RMSDP=2.32D-09 MaxDP=1.16D-07 DE= 2.58D-11 OVMax= 1.65D-07

 Error on total polarization charges =  0.04048
 SCF Done:  E(RM06) =  -287.709857708     A.U. after   11 cycles
            NFock= 11  Conv=0.23D-08     -V/T= 2.0073
 KE= 2.856252563932D+02 PE=-1.175060502395D+03 EE= 3.495149768380D+02
 SMD-CDS (non-electrostatic) energy       (kcal/mol) =       2.51
 (included in total energy above)
 Leave Link  502 at Mon Jul 29 17:12:07 2024, MaxMem=  4026531840 cpu:              88.0 elap:              88.3
 (Enter C:\G16W\l701.exe)
 ... and contract with generalized density number  0.
 Compute integral first derivatives.
 D1PCM: PCM CHGder 1st derivatives, ID1Alg=3 FixD1E=F DoIter=F DoCFld=F I1PDM=0.
 GePol: Maximum number of non-zero 1st derivatives   =     243
 Leave Link  701 at Mon Jul 29 17:12:10 2024, MaxMem=  4026531840 cpu:               2.0 elap:               2.5
 (Enter C:\G16W\l702.exe)
 L702 exits ... SP integral derivatives will be done elsewhere.
 Leave Link  702 at Mon Jul 29 17:12:11 2024, MaxMem=  4026531840 cpu:               0.0 elap:               0.6
 (Enter C:\G16W\l703.exe)
 Integral derivatives from FoFJK, PRISM(SPDF).
 Compute integral first derivatives, UseDBF=F ICtDFT=           0.
 Calling FoFJK, ICntrl=      2127 FMM=F ISym2X=0 I1Cent= 0 IOpClX= 0 NMat=1 NMatS=1 NMatT=0.
 FoFJK:  IHMeth= 1 ICntrl=    2127 DoSepK=F KAlg= 0 I1Cent=           0 FoldK=F
 IRaf=         0 NMat=       1 IRICut=       1 DoRegI=T DoRafI=F ISym2E= 0 IDoP0=0 IntGTp=1.
 FoFCou: FMM=F IPFlag=           0 FMFlag=      100000 FMFlg1=         800
[...]
     15 -0.720765D-01 -0.820607D+00  0.980802D+00 -0.126647D+01 -0.150269D+00
                6             7             8             9            10 
      6  0.000000D+00
      7  0.757154D-02  0.000000D+00
      8  0.130450D-03  0.778379D-01  0.000000D+00
      9  0.163978D+00 -0.948817D-02  0.762180D+00  0.000000D+00
     10  0.140052D+00 -0.114937D-01  0.769882D+00 -0.238891D+01  0.000000D+00
     11 -0.229363D+00 -0.652604D-02  0.810543D+00 -0.238754D+01 -0.234899D+01
     12  0.648778D-01  0.775496D-01 -0.236010D-01 -0.473643D-01 -0.852175D-02
     13  0.232569D+00 -0.393915D-02  0.870816D-01  0.159400D+01 -0.223813D-01
     14  0.216369D+00 -0.132389D-01 -0.516381D+00 -0.138627D+01 -0.184748D+01
     15  0.201996D+00 -0.156450D-01 -0.141733D+00 -0.119069D+01  0.849876D+00
               11            12            13            14            15 
     11  0.000000D+00
     12 -0.537343D+00  0.000000D+00
     13 -0.173728D+01  0.758199D+00  0.000000D+00
     14 -0.199660D+01  0.791005D+00 -0.230392D+01  0.000000D+00
     15 -0.167954D+01  0.763247D+00 -0.237322D+01 -0.237073D+01  0.000000D+00
 Total nuclear spin-spin coupling K (Hz): 
                1             2             3             4             5 
      1  0.000000D+00
      2  0.177218D+02  0.000000D+00
      3  0.178713D+02 -0.915387D+00  0.000000D+00
      4  0.188069D+02 -0.795529D+00 -0.765381D+00  0.000000D+00
      5  0.270362D+02 -0.106843D+01 -0.100955D+01 -0.108876D+01  0.000000D+00
      6  0.374455D+01  0.521322D+00  0.530540D+00  0.528345D+00 -0.182941D+02
      7  0.917741D+01  0.718860D-01  0.880946D-01  0.800849D+00  0.225278D+02
      8  0.409918D+00 -0.682837D-01 -0.673463D-01  0.115763D+00 -0.855810D-01
      9 -0.365927D-01  0.181704D-01  0.412975D-01 -0.197747D-02  0.441730D+00
     10 -0.693199D-01  0.456926D-01  0.280951D-01 -0.432250D-02  0.272315D+00
     11 -0.622629D-01 -0.182028D-02 -0.386697D-02  0.369048D-04  0.475072D+00
     12  0.971984D+00  0.124906D+00  0.126903D+00  0.351493D+00  0.116346D+01
     13 -0.558401D-02  0.245463D-01 -0.482551D-02  0.131601D-01  0.866349D+00
     14  0.871453D-02 -0.192067D-01  0.348509D-01  0.234273D-02  0.450899D+00
     15 -0.656994D-01  0.100545D-02  0.160921D-01 -0.888563D-02  0.867787D-01
                6             7             8             9            10 
      6  0.000000D+00
      7  0.125266D+01  0.000000D+00
      8  0.153271D+01  0.165214D+02  0.000000D+00
      9  0.826399D-01 -0.258183D+00  0.196442D+02  0.000000D+00
     10  0.945482D-01 -0.481544D+00  0.194483D+02 -0.729323D+00  0.000000D+00
     11 -0.324536D-01 -0.534331D+00  0.198485D+02 -0.734938D+00 -0.730200D+00
     12 -0.385182D+00  0.159831D+02  0.961987D+00  0.189137D+00  0.236077D+00
     13  0.118872D+00 -0.411288D+00  0.453695D+00 -0.210130D-01  0.126665D-01
     14 -0.914703D-01 -0.453331D+00  0.930781D+00 -0.290640D-02 -0.215636D-01
     15  0.271062D+00 -0.512067D+00  0.327354D-01 -0.147778D-01 -0.288113D-01
               11            12            13            14            15 
     11  0.000000D+00
     12  0.106521D+01  0.000000D+00
     13  0.200261D-01  0.193902D+02  0.000000D+00
     14  0.743908D-01  0.196492D+02 -0.806961D+00  0.000000D+00
     15 -0.219376D-01  0.197033D+02 -0.726565D+00 -0.708746D+00  0.000000D+00
 Total nuclear spin-spin coupling J (Hz): 
                1             2             3             4             5 
      1  0.000000D+00
      2  0.139061D+03  0.000000D+00
      3  0.140234D+03 -0.285600D+02  0.000000D+00
      4  0.147576D+03 -0.248205D+02 -0.238799D+02  0.000000D+00
      5  0.533565D+02 -0.838383D+01 -0.792186D+01 -0.854343D+01  0.000000D+00
      6 -0.398488D+01 -0.220585D+01 -0.224486D+01 -0.223557D+01  0.194683D+02
      7  0.520554D+01  0.162123D+00  0.198678D+00  0.180614D+01  0.127780D+02
      8  0.808984D+00 -0.535815D+00 -0.528460D+00  0.908383D+00 -0.168896D+00
      9 -0.287139D+00  0.566916D+00  0.128848D+01 -0.616970D-01  0.346622D+01
     10 -0.543946D+00  0.142561D+01  0.876565D+00 -0.134862D+00  0.213683D+01
     11 -0.488571D+00 -0.567925D-01 -0.120649D+00  0.115143D-02  0.372785D+01
     12  0.191823D+01  0.980124D+00  0.995797D+00  0.275813D+01  0.229611D+01
     13 -0.438172D-01  0.765843D+00 -0.150556D+00  0.410596D+00  0.679816D+01
     14  0.683820D-01 -0.599248D+00  0.108735D+01  0.730931D-01  0.353816D+01
     15 -0.515537D+00  0.313701D-01  0.502072D+00 -0.277231D+00  0.680944D+00
                6             7             8             9            10 
      6  0.000000D+00
      7 -0.383136D+00  0.000000D+00
      8 -0.163108D+01  0.937112D+01  0.000000D+00
      9 -0.349672D+00 -0.582276D+00  0.154146D+03  0.000000D+00
     10 -0.400059D+00 -0.108602D+01  0.152609D+03 -0.227548D+02  0.000000D+00
     11  0.137320D+00 -0.120507D+01  0.155749D+03 -0.229300D+02 -0.227822D+02
     12  0.409904D+00  0.906579D+01  0.189851D+01  0.148414D+01  0.185248D+01
     13 -0.502979D+00 -0.927572D+00  0.356010D+01 -0.655605D+00  0.395193D+00
     14  0.387036D+00 -0.102239D+01  0.730374D+01 -0.906796D-01 -0.672784D+00
     15 -0.114694D+01 -0.115486D+01  0.256872D+00 -0.461067D+00 -0.898911D+00
               11            12            13            14            15 
     11  0.000000D+00
     12  0.835859D+01  0.000000D+00
     13  0.624812D+00  0.152153D+03  0.000000D+00
     14  0.232099D+01  0.154185D+03 -0.251771D+02  0.000000D+00
     15 -0.684454D+00  0.154610D+03 -0.226688D+02 -0.221128D+02  0.000000D+00
 End of Minotr F.D. properties file   721 does not exist.
 End of Minotr F.D. properties file   722 does not exist.
 End of Minotr F.D. properties file   788 does not exist.
 Leave Link 1002 at Mon Jul 29 21:44:57 2024, MaxMem=  4026531840 cpu:            4476.0 elap:            4476.2
 (Enter C:\G16W\l601.exe)
 Copying SCF densities to generalized density rwf, IOpCl= 0 IROHF=0.

 **********************************************************************

            Population analysis using the SCF Density.

 **********************************************************************

 Orbital symmetries:
       Occupied  (A) (A) (A) (A) (A) (A) (A) (A) (A) (A) (A) (A)
                 (A) (A) (A) (A) (A) (A) (A) (A) (A) (A) (A) (A)
       Virtual   (A) (A) (A) (A) (A) (A) (A) (A) (A) (A) (A) (A)
                 (A) (A) (A) (A) (A) (A) (A) (A) (A) (A) (A) (A)
                 (A) (A) (A) (A) (A) (A) (A) (A) (A) (A) (A) (A)
                 (A) (A) (A) (A) (A) (A) (A) (A) (A) (A) (A) (A)
                 (A) (A) (A) (A) (A) (A) (A) (A) (A) (A) (A) (A)
                 (A) (A) (A) (A) (A) (A) (A) (A) (A) (A) (A) (A)
                 (A) (A) (A) (A) (A) (A) (A) (A) (A) (A) (A) (A)
                 (A) (A) (A) (A) (A) (A) (A) (A) (A) (A) (A) (A)
                 (A) (A) (A) (A) (A) (A) (A) (A) (A) (A) (A) (A)
                 (A) (A) (A) (A) (A) (A) (A) (A) (A) (A) (A) (A)
                 (A) (A) (A) (A) (A) (A) (A) (A) (A) (A) (A) (A)
                 (A) (A) (A) (A) (A) (A) (A) (A) (A) (A) (A) (A)
                 (A) (A) (A) (A) (A) (A) (A) (A) (A) (A) (A) (A)
                 (A) (A) (A) (A) (A) (A) (A) (A) (A) (A) (A) (A)
                 (A) (A) (A) (A) (A) (A) (A) (A) (A) (A) (A) (A)
                 (A) (A) (A) (A) (A) (A) (A) (A) (A) (A) (A) (A)
                 (A) (A) (A) (A) (A) (A) (A) (A) (A) (A) (A) (A)
                 (A) (A) (A) (A) (A) (A) (A) (A) (A) (A) (A) (A)
                 (A) (A) (A) (A) (A) (A) (A) (A) (A) (A) (A) (A)
                 (A) (A) (A) (A) (A) (A) (A) (A) (A) (A) (A) (A)
                 (A) (A) (A) (A) (A) (A) (A) (A) (A) (A) (A) (A)
                 (A) (A) (A) (A) (A) (A) (A) (A) (A) (A) (A) (A)
                 (A) (A) (A) (A) (A) (A) (A) (A) (A) (A) (A) (A)
                 (A) (A) (A) (A) (A) (A)
 The electronic state is 1-A.
 Alpha  occ. eigenvalues --  -19.18110 -14.42136 -10.34225 -10.25999 -10.25570
 Alpha  occ. eigenvalues --  -10.22997  -1.05924  -0.95165  -0.76191  -0.71961
 Alpha  occ. eigenvalues --   -0.68607  -0.54902  -0.50513  -0.49163  -0.48812
 Alpha  occ. eigenvalues --   -0.43131  -0.41780  -0.40801  -0.40383  -0.39924
 Alpha  occ. eigenvalues --   -0.38017  -0.37098  -0.27891  -0.26067
 Alpha virt. eigenvalues --    0.02767   0.04515   0.07145   0.09016   0.09846
 Alpha virt. eigenvalues --    0.10184   0.11587   0.12090   0.14198   0.14237
 Alpha virt. eigenvalues --    0.16145   0.17672   0.21033   0.23643   0.24012
 Alpha virt. eigenvalues --    0.25491   0.27667   0.28953   0.29658   0.33746
 Alpha virt. eigenvalues --    0.33981   0.35631   0.36661   0.37277   0.39507
 Alpha virt. eigenvalues --    0.41217   0.42276   0.42863   0.43455   0.44010
 Alpha virt. eigenvalues --    0.44238   0.44950   0.45984   0.47166   0.48458
 Alpha virt. eigenvalues --    0.50048   0.52980   0.54688   0.55788   0.57010
 Alpha virt. eigenvalues --    0.58082   0.63173   0.65735   0.66943   0.70011
 Alpha virt. eigenvalues --    0.73175   0.75249   0.75527   0.80212   0.81042
 Alpha virt. eigenvalues --    0.82027   0.84268   0.86804   0.87343   0.89679
 Alpha virt. eigenvalues --    0.90027   0.92836   0.93709   0.96884   0.98154
 Alpha virt. eigenvalues --    1.00048   1.01608   1.02718   1.03117   1.04970
 Alpha virt. eigenvalues --    1.07046   1.10608   1.11490   1.12290   1.13370
 Alpha virt. eigenvalues --    1.15538   1.16733   1.18151   1.19148   1.21232
 Alpha virt. eigenvalues --    1.21880   1.23674   1.24682   1.25609   1.27348
 Alpha virt. eigenvalues --    1.28974   1.29914   1.31177   1.32491   1.35370
 Alpha virt. eigenvalues --    1.35772   1.39775   1.41712   1.43713   1.46415
 Alpha virt. eigenvalues --    1.48198   1.49050   1.52073   1.53924   1.59515
 Alpha virt. eigenvalues --    1.68137   1.73624   1.79627   1.82400   1.87522
 Alpha virt. eigenvalues --    1.90846   1.93873   2.03826   2.08354   2.13402
 Alpha virt. eigenvalues --    2.17519   2.19174   2.22583   2.26245   2.29990
 Alpha virt. eigenvalues --    2.32019   2.34310   2.43370   2.44513   2.46496
 Alpha virt. eigenvalues --    2.49451   2.52869   2.55870   2.57448   2.59422
 Alpha virt. eigenvalues --    2.60726   2.63426   2.64715   2.68237   2.70143
 Alpha virt. eigenvalues --    2.71284   2.71539   2.72675   2.73469   2.74344
 Alpha virt. eigenvalues --    2.75520   2.77180   2.80923   2.83232   2.84829
 Alpha virt. eigenvalues --    2.86976   2.90082   2.91427   2.92547   2.93268
 Alpha virt. eigenvalues --    2.95877   2.97394   3.00130   3.01106   3.03228
 Alpha virt. eigenvalues --    3.04743   3.07619   3.08944   3.09880   3.12549
 Alpha virt. eigenvalues --    3.14107   3.18042   3.21213   3.22941   3.24647
 Alpha virt. eigenvalues --    3.26483   3.27629   3.27907   3.28703   3.30870
 Alpha virt. eigenvalues --    3.32570   3.35017   3.35517   3.36536   3.38639
 Alpha virt. eigenvalues --    3.41078   3.41522   3.45394   3.45813   3.48900
 Alpha virt. eigenvalues --    3.49661   3.51320   3.54802   3.55624   3.57078
 Alpha virt. eigenvalues --    3.60747   3.63761   3.65960   3.66839   3.70357
 Alpha virt. eigenvalues --    3.71505   3.74320   3.74948   3.76247   3.78021
 Alpha virt. eigenvalues --    3.79676   3.84218   3.86073   3.86378   3.89104
 Alpha virt. eigenvalues --    3.92236   3.93930   3.98353   3.98756   4.02050
 Alpha virt. eigenvalues --    4.03372   4.05023   4.05596   4.06850   4.09054
 Alpha virt. eigenvalues --    4.12818   4.14257   4.16911   4.18193   4.19182
 Alpha virt. eigenvalues --    4.21385   4.23625   4.23832   4.27922   4.29863
 Alpha virt. eigenvalues --    4.32184   4.35254   4.37347   4.39452   4.44580
 Alpha virt. eigenvalues --    4.46236   4.52199   4.54641   4.61277   4.63150
 Alpha virt. eigenvalues --    4.64420   4.67693   4.74454   4.74794   4.77205
 Alpha virt. eigenvalues --    4.81944   4.82235   4.86165   4.90280   4.92402
 Alpha virt. eigenvalues --    4.93301   4.97139   4.98434   4.99384   5.00503
 Alpha virt. eigenvalues --    5.00889   5.01947   5.03429   5.04264   5.08205
 Alpha virt. eigenvalues --    5.10610   5.13599   5.14942   5.17661   5.18948
 Alpha virt. eigenvalues --    5.20598   5.23950   5.24975   5.28676   5.29270
 Alpha virt. eigenvalues --    5.31727   5.35976   5.40886   5.43414   5.53146
 Alpha virt. eigenvalues --    5.61373   5.61704   5.67636   5.73186   5.78552
 Alpha virt. eigenvalues --    5.80331   5.80880   5.83846   5.84471   5.86982
 Alpha virt. eigenvalues --    5.91915   5.98016   6.06092   6.21360   6.29078
 Alpha virt. eigenvalues --    6.47349   6.59378   6.81631   6.89721   7.06141
 Alpha virt. eigenvalues --    7.13209   9.02925  11.63999  12.84333  13.49746
 Alpha virt. eigenvalues --   13.64491  13.75051
          Condensed to atoms (all electrons):
               1          2          3          4          5          6
     1  C    5.089279   0.379291   0.381311   0.396084   0.292431  -0.084141
     2  H    0.379291   0.550452  -0.031668  -0.014086  -0.025327   0.001219
     3  H    0.381311  -0.031668   0.555172  -0.013463  -0.028530   0.002110
     4  H    0.396084  -0.014086  -0.013463   0.531005  -0.040727   0.009100
     5  C    0.292431  -0.025327  -0.028530  -0.040727   4.488086   0.713715
     6  O   -0.084141   0.001219   0.002110   0.009100   0.713715   8.034509
     7  N   -0.088999   0.002762  -0.000168   0.007453   0.403510  -0.149301
     8  C    0.007259  -0.000410  -0.000778  -0.000354  -0.052797  -0.024432
     9  H   -0.000289   0.000048  -0.000033   0.000020   0.002354  -0.000273
    10  H   -0.000044  -0.000011   0.000085   0.000015  -0.000045   0.000374
    11  H    0.003420  -0.000194  -0.000237  -0.000209  -0.008631   0.039103
    12  C   -0.006993  -0.006824  -0.001653   0.000977  -0.050993   0.000871
    13  H   -0.000107  -0.000058   0.000430   0.000036   0.001713  -0.000205
    14  H    0.006235  -0.000356  -0.006063   0.000261  -0.010877   0.000310
    15  H   -0.001015   0.000606   0.000403  -0.000006  -0.001845   0.000168
               7          8          9         10         11         12
     1  C   -0.088999   0.007259  -0.000289  -0.000044   0.003420  -0.006993
     2  H    0.002762  -0.000410   0.000048  -0.000011  -0.000194  -0.006824
     3  H   -0.000168  -0.000778  -0.000033   0.000085  -0.000237  -0.001653
     4  H    0.007453  -0.000354   0.000020   0.000015  -0.000209   0.000977
     5  C    0.403510  -0.052797   0.002354  -0.000045  -0.008631  -0.050993
     6  O   -0.149301  -0.024432  -0.000273   0.000374   0.039103   0.000871
     7  N    6.567532   0.270665  -0.033416  -0.042458  -0.040528   0.303429
     8  C    0.270665   4.927354   0.404306   0.402294   0.386542  -0.065785
     9  H   -0.033416   0.404306   0.571918  -0.046467  -0.021544  -0.008570
    10  H   -0.042458   0.402294  -0.046467   0.583327  -0.021935  -0.002694
    11  H   -0.040528   0.386542  -0.021544  -0.021935   0.537039   0.004789
    12  C    0.303429  -0.065785  -0.008570  -0.002694   0.004789   4.889088
    13  H   -0.037131  -0.007547   0.006598  -0.005236   0.000002   0.405964
    14  H   -0.024862   0.005806   0.000491  -0.000398  -0.000312   0.393188
    15  H   -0.049670  -0.001793  -0.001763   0.007087  -0.000208   0.404165
              13         14         15
     1  C   -0.000107   0.006235  -0.001015
     2  H   -0.000058  -0.000356   0.000606
     3  H    0.000430  -0.006063   0.000403
     4  H    0.000036   0.000261  -0.000006
     5  C    0.001713  -0.010877  -0.001845
     6  O   -0.000205   0.000310   0.000168
     7  N   -0.037131  -0.024862  -0.049670
     8  C   -0.007547   0.005806  -0.001793
     9  H    0.006598   0.000491  -0.001763
    10  H   -0.005236  -0.000398   0.007087
    11  H    0.000002  -0.000312  -0.000208
    12  C    0.405964   0.393188   0.404165
    13  H    0.562348  -0.008832  -0.046508
    14  H   -0.008832   0.536377  -0.036222
    15  H   -0.046508  -0.036222   0.590551
 Mulliken charges:
               1
     1  C   -0.373724
     2  H    0.144557
     3  H    0.143084
     4  H    0.123892
     5  C    0.317964
     6  O   -0.543127
     7  N   -0.088817
     8  C   -0.250332
     9  H    0.126622
    10  H    0.126105
    11  H    0.122903
    12  C   -0.258959
    13  H    0.128533
    14  H    0.145252
    15  H    0.136049
 Sum of Mulliken charges =   0.00000
 Mulliken charges with hydrogens summed into heavy atoms:
               1
     1  C    0.037808
     5  C    0.317964
     6  O   -0.543127
     7  N   -0.088817
     8  C    0.125297
    12  C    0.150875
 Electronic spatial extent (au):  <R**2>=            613.7914
 Charge=              0.0000 electrons
 Dipole moment (field-independent basis, Debye):
    X=              2.9888    Y=              5.0940    Z=              0.0698  Tot=              5.9065
 Quadrupole moment (field-independent basis, Debye-Ang):
   XX=            -35.1407   YY=            -40.5659   ZZ=            -36.7571
   XY=             -5.5403   XZ=              0.0575   YZ=             -0.1318
 Traceless Quadrupole moment (field-independent basis, Debye-Ang):
   XX=              2.3472   YY=             -3.0780   ZZ=              0.7308
   XY=             -5.5403   XZ=              0.0575   YZ=             -0.1318
 Octapole moment (field-independent basis, Debye-Ang**2):
  XXX=              5.2632  YYY=             12.4987  ZZZ=              0.5606  XYY=              9.3180
  XXY=              6.0111  XXZ=             -0.8543  XZZ=              0.5588  YZZ=              1.0506
  YYZ=             -0.5110  XYZ=              0.1307
 Hexadecapole moment (field-independent basis, Debye-Ang**3):
 XXXX=           -422.7870 YYYY=           -314.3913 ZZZZ=            -55.2884 XXXY=             -5.5134
 XXXZ=             -3.5056 YYYX=            -10.3847 YYYZ=             -1.1457 ZZZX=              1.2309
 ZZZY=              0.6957 XXYY=           -129.4517 XXZZ=            -78.9543 YYZZ=            -58.7783
 XXYZ=             -1.1111 YYXZ=              0.4831 ZZXY=             -0.2673
 N-N= 2.519855268602D+02 E-N=-1.174665417658D+03  KE= 2.856577434812D+02
 Calculating spin-rotation constants.
 Leave Link  601 at Mon Jul 29 21:45:02 2024, MaxMem=  4026531840 cpu:               4.0 elap:               4.5
 (Enter C:\G16W\l9999.exe)

 Test job not archived.
 1|1|UNPC-KYNARETH|SP|RM06|Gen|C4H9N1O1|ADMINISTRATOR|29-Jul-2024|0||#P
  Geom=AllCheck Guess=TCheck SCRF=Check GenChk RM06/ChkBas NMR=ReadFC I
 Op(3/6=22)||Chemical shielding and J-coupling calculation||0,1|C,0,-0.
 9302486182,1.378362786,0.0098854115|H,0,-0.3544732105,0.4937509899,-0.
 2643401304|H,0,-0.3226018475,2.2516593468,-0.2291051435|H,0,-1.8404911
 674,1.403507816,-0.5826548303|C,0,-1.3062998266,1.3553870776,1.4600460
 884|O,0,-2.4923923953,1.3241660967,1.798112676|N,0,-0.3031371282,1.364
 1139722,2.3617553478|C,0,-0.5797796457,1.4712216735,3.7788939621|H,0,-
 0.0717926708,0.6730074978,4.3222151117|H,0,-0.2170234445,2.4274612665,
 4.1640622398|H,0,-1.6470469955,1.3998165553,3.9580974668|C,0,1.0957210
 244,1.5017774942,2.011354028|H,0,1.6956431764,0.9603036674,2.742705649
 4|H,0,1.3093016801,1.0841336202,1.0325310655|H,0,1.4101753293,2.549061
 4999,2.0260078972||Version=EM64W-G16RevC.01|State=1-A|HF=-287.7424986|
 RMSD=2.854e-009|Dipole=2.3184266,0.1345603,-0.0824666|Quadrupole=-4.84
 00743,0.5306768,4.3093975,-0.3108268,0.0682623,0.1626541|PG=C01 [X(C4H
 9N1O1)]||@


 PERICLES, SOPHOCLES,
 PELOPONESIAN WAR,
 FRENCH VERBS, LATIN VERBS
 H2SO4.
 Job cpu time:       0 days  1 hours 16 minutes 15.0 seconds.
 Elapsed time:       0 days  1 hours 16 minutes 10.3 seconds.
 File lengths (MBytes):  RWF=    311 Int=      0 D2E=      0 Chk=     18 Scr=      1
 Normal termination of Gaussian 16 at Mon Jul 29 21:45:03 2024.
